
     Program PWSCF v.6.0 (svn rev. 13079) starts on 21Feb2018 at 14:19:43 

     This program is part of the open-source Quantum ESPRESSO suite
     for quantum simulation of materials; please cite
         "P. Giannozzi et al., J. Phys.:Condens. Matter 21 395502 (2009);
          URL http://www.quantum-espresso.org", 
     in publications or presentations arising from this work. More details at
     http://www.quantum-espresso.org/quote

     Parallel version (MPI), running on    16 processors
     R & G space division:  proc/nbgrp/npool/nimage =      16
     Waiting for input...
     Reading input from standard input

     Current dimensions of program PWSCF are:
     Max number of different atomic species (ntypx) = 10
     Max number of k-points (npk) =  40000
     Max angular momentum in pseudopotentials (lmaxx) =  3

     Subspace diagonalization in iterative solution of the eigenvalue problem:
     a serial algorithm will be used

 
     Parallelization info
     --------------------
     sticks:   dense  smooth     PW     G-vecs:    dense   smooth      PW
     Min         657     263     74                36802     9311    1405
     Max         658     264     75                36804     9314    1408
     Sum       10525    4215   1195               588847   148993   22511
 


     bravais-lattice index     =          -12
     lattice parameter (alat)  =      11.2934  a.u.
     unit-cell volume          =    2373.1521 (a.u.)^3
     number of atoms/cell      =           17
     number of atomic types    =            3
     number of electrons       =       149.00
     number of Kohn-Sham states=           90
     kinetic-energy cutoff     =      60.0000  Ry
     charge density cutoff     =     600.0000  Ry
     convergence threshold     =      1.0E-08
     mixing beta               =       0.7000
     number of iterations used =            8  plain     mixing
     Exchange-correlation      =  SLA  PW   PBX  PBC ( 1  4  3  4 0 0)
     nstep                     =          500


     celldm(1)=  11.293381  celldm(2)=   1.730531  celldm(3)=   1.006158
     celldm(4)=   0.000000  celldm(5)=  -0.323422  celldm(6)=   0.000000

     crystal axes: (cart. coord. in units of alat)
               a(1) = (   1.000000   0.000000   0.000000 )  
               a(2) = (   0.000000   1.730531   0.000000 )  
               a(3) = (  -0.325414   0.000000   0.952082 )  

     reciprocal axes: (cart. coord. in units 2 pi/alat)
               b(1) = (  1.000000  0.000000  0.341792 )  
               b(2) = (  0.000000  0.577857  0.000000 )  
               b(3) = (  0.000000  0.000000  1.050330 )  


     PseudoPot. # 1 for Ru read from file:
     /home/phys-musr/mert2601/pseudo/Ru.pbe-spn-rrkjus_psl.1.0.0.UPF
     MD5 check sum: f33c46f5b0d54ba5aa393bc1c575518e
     Pseudo is Ultrasoft + core correction, Zval = 16.0
     Generated using "atomic" code by A. Dal Corso  v.5.0.2 svn rev. 9656
     Using radial grid of 1233 points,  6 beta functions with: 
                l(1) =   0
                l(2) =   0
                l(3) =   1
                l(4) =   1
                l(5) =   2
                l(6) =   2
     Q(r) pseudized with 0 coefficients 


     PseudoPot. # 2 for Cl read from file:
     /home/phys-musr/mert2601/pseudo/Cl.pbe-n-rrkjus_psl.1.0.0.UPF
     MD5 check sum: 6c44f4e39484f98bbcc1703ef0502336
     Pseudo is Ultrasoft + core correction, Zval =  7.0
     Generated using "atomic" code by A. Dal Corso  v.5.0.2 svn rev. 9656
     Using radial grid of 1157 points,  6 beta functions with: 
                l(1) =   0
                l(2) =   0
                l(3) =   1
                l(4) =   1
                l(5) =   2
                l(6) =   2
     Q(r) pseudized with 0 coefficients 


     PseudoPot. # 3 for H  read from file:
     /home/phys-musr/mert2601/pseudo/H.pbe-tm-dc.UPF
     MD5 check sum: c7e992f3be35a5ba2152290168345934
     Pseudo is Norm-conserving, Zval =  1.0
     Generated by new atomic code, or converted to UPF format
     Using radial grid of  929 points,  0 beta functions with: 

     atomic species   valence    mass     pseudopotential
        Ru            16.00   101.07000     Ru( 1.00)
        Cl             7.00    35.45000     Cl( 1.00)
        XXMU             1.00     0.11343     H ( 1.00)

     No symmetry found



   Cartesian axes

     site n.     atom                  positions (alat units)
         1           Ru  tau(   1) = (   0.0000000   0.5786896   0.0000000  )
         2           Ru  tau(   2) = (   0.0000000   1.1518415   0.0000000  )
         3           Ru  tau(   3) = (   0.5000000   1.4439552   0.0000000  )
         4           Ru  tau(   4) = (   0.5000000   0.2865760   0.0000000  )
         5           Cl  tau(   5) = (   0.5020681   0.3002471   0.7294850  )
         6           Cl  tau(   6) = (   0.1725183   1.4302840   0.2225967  )
         7           Cl  tau(   7) = (   0.1725183   0.3002471   0.2225967  )
         8           Cl  tau(   8) = (   0.5020681   1.4302840   0.7294850  )
         9           Cl  tau(   9) = (   0.0020681   1.1655127   0.7294850  )
        10           Cl  tau(  10) = (   0.6725183   0.5650184   0.2225967  )
        11           Cl  tau(  11) = (   0.6725183   1.1655127   0.2225967  )
        12           Cl  tau(  12) = (   0.0020681   0.5650184   0.7294850  )
        13           Cl  tau(  13) = (   0.6524587   0.0000000   0.2274523  )
        14           Cl  tau(  14) = (   0.0221277   0.0000000   0.7246293  )
        15           Cl  tau(  15) = (   0.1524587   0.8652656   0.2274523  )
        16           Cl  tau(  16) = (   0.5221277   0.8652656   0.7246293  )
        17           XXMU  tau(  17) = (   0.0228511   0.0173053   0.3427494  )

     number of k points=    14  gaussian smearing, width (Ry)=  0.0100
                       cart. coord. in units 2pi/alat
        k(    1) = (   0.1666667   0.0963095   0.2320203), wk =   0.1481481
        k(    2) = (   0.1666667   0.0963095  -0.4681998), wk =   0.1481481
        k(    3) = (   0.1666667   0.0963095  -0.1180897), wk =   0.1481481
        k(    4) = (   0.1666667  -0.2889286   0.2320203), wk =   0.1481481
        k(    5) = (   0.1666667  -0.2889286  -0.4681998), wk =   0.1481481
        k(    6) = (   0.1666667  -0.2889286  -0.1180897), wk =   0.1481481
        k(    7) = (  -0.5000000   0.0963095   0.0041592), wk =   0.1481481
        k(    8) = (  -0.5000000   0.0963095  -0.6960609), wk =   0.1481481
        k(    9) = (  -0.5000000  -0.2889286   0.0041592), wk =   0.1481481
        k(   10) = (  -0.5000000  -0.2889286  -0.6960609), wk =   0.0740741
        k(   11) = (  -0.1666667   0.0963095  -0.2320203), wk =   0.1481481
        k(   12) = (  -0.1666667   0.0963095   0.4681998), wk =   0.1481481
        k(   13) = (  -0.1666667   0.0963095   0.1180897), wk =   0.1481481
        k(   14) = (   0.5000000   0.0963095  -0.0041592), wk =   0.1481481

     Dense  grid:   588847 G-vectors     FFT dimensions: (  90, 160,  90)

     Smooth grid:   148993 G-vectors     FFT dimensions: (  60, 100,  60)

     Estimated max dynamical RAM per process >      67.82Mb

     Estimated total allocated dynamical RAM >    1085.10Mb

     Initial potential from superposition of free atoms

     starting charge  148.09734, renormalised to  149.00000
     Starting wfc are   89 randomized atomic wfcs +    1 random wfc

     total cpu time spent up to now is        9.3 secs

     Self-consistent Calculation

     iteration #  1     ecut=    60.00 Ry     beta=0.70
     Davidson diagonalization with overlap
     ethr =  1.00E-02,  avg # of iterations =  4.4

     total cpu time spent up to now is       22.1 secs

     total energy              =   -1199.27989422 Ry
     Harris-Foulkes estimate   =   -1206.30984171 Ry
     estimated scf accuracy    <       8.61001899 Ry

     iteration #  2     ecut=    60.00 Ry     beta=0.70
     Davidson diagonalization with overlap
     ethr =  5.78E-03,  avg # of iterations =  6.1

     total cpu time spent up to now is       43.2 secs

     total energy              =   -1176.53004972 Ry
     Harris-Foulkes estimate   =   -1234.43911244 Ry
     estimated scf accuracy    <     361.24094713 Ry

     iteration #  3     ecut=    60.00 Ry     beta=0.70
     Davidson diagonalization with overlap
     ethr =  5.78E-03,  avg # of iterations =  6.0

     total cpu time spent up to now is       62.6 secs

     total energy              =   -1203.87417080 Ry
     Harris-Foulkes estimate   =   -1206.68843794 Ry
     estimated scf accuracy    <       9.81103101 Ry

     iteration #  4     ecut=    60.00 Ry     beta=0.70
     Davidson diagonalization with overlap
     ethr =  5.78E-03,  avg # of iterations =  2.9

     total cpu time spent up to now is       72.6 secs

     total energy              =   -1203.64513242 Ry
     Harris-Foulkes estimate   =   -1206.74047049 Ry
     estimated scf accuracy    <      24.60795334 Ry

     iteration #  5     ecut=    60.00 Ry     beta=0.70
     Davidson diagonalization with overlap
     ethr =  5.78E-03,  avg # of iterations =  1.6

     total cpu time spent up to now is       81.7 secs

     total energy              =   -1205.05937309 Ry
     Harris-Foulkes estimate   =   -1205.70872081 Ry
     estimated scf accuracy    <       6.89293131 Ry

     iteration #  6     ecut=    60.00 Ry     beta=0.70
     Davidson diagonalization with overlap
     ethr =  4.63E-03,  avg # of iterations =  1.0

     total cpu time spent up to now is       90.4 secs

     total energy              =   -1205.24416023 Ry
     Harris-Foulkes estimate   =   -1205.49157635 Ry
     estimated scf accuracy    <       2.80117459 Ry

     iteration #  7     ecut=    60.00 Ry     beta=0.70
     Davidson diagonalization with overlap
     ethr =  1.88E-03,  avg # of iterations =  1.0

     total cpu time spent up to now is       99.3 secs

     total energy              =   -1205.37429152 Ry
     Harris-Foulkes estimate   =   -1205.39555074 Ry
     estimated scf accuracy    <       0.95168627 Ry

     iteration #  8     ecut=    60.00 Ry     beta=0.70
     Davidson diagonalization with overlap
     ethr =  6.39E-04,  avg # of iterations =  1.0

     total cpu time spent up to now is      108.0 secs

     total energy              =   -1205.34674880 Ry
     Harris-Foulkes estimate   =   -1205.37931099 Ry
     estimated scf accuracy    <       0.86427619 Ry

     iteration #  9     ecut=    60.00 Ry     beta=0.70
     Davidson diagonalization with overlap
     ethr =  5.80E-04,  avg # of iterations =  1.0

     total cpu time spent up to now is      116.9 secs

     total energy              =   -1205.31337868 Ry
     Harris-Foulkes estimate   =   -1205.37794722 Ry
     estimated scf accuracy    <       1.24914672 Ry

     iteration # 10     ecut=    60.00 Ry     beta=0.70
     Davidson diagonalization with overlap
     ethr =  5.80E-04,  avg # of iterations =  1.0

     total cpu time spent up to now is      125.6 secs

     total energy              =   -1205.32230407 Ry
     Harris-Foulkes estimate   =   -1205.33572730 Ry
     estimated scf accuracy    <       0.19662613 Ry

     iteration # 11     ecut=    60.00 Ry     beta=0.70
     Davidson diagonalization with overlap
     ethr =  1.32E-04,  avg # of iterations =  4.5

     total cpu time spent up to now is      136.2 secs

     total energy              =   -1205.32626178 Ry
     Harris-Foulkes estimate   =   -1205.32894059 Ry
     estimated scf accuracy    <       0.01103226 Ry

     iteration # 12     ecut=    60.00 Ry     beta=0.70
     Davidson diagonalization with overlap
     ethr =  7.40E-06,  avg # of iterations = 10.1

     total cpu time spent up to now is      152.6 secs

     total energy              =   -1205.32649351 Ry
     Harris-Foulkes estimate   =   -1205.32887695 Ry
     estimated scf accuracy    <       0.01975270 Ry

     iteration # 13     ecut=    60.00 Ry     beta=0.70
     Davidson diagonalization with overlap
     ethr =  7.40E-06,  avg # of iterations =  1.6

     total cpu time spent up to now is      161.7 secs

     total energy              =   -1205.32756176 Ry
     Harris-Foulkes estimate   =   -1205.32794941 Ry
     estimated scf accuracy    <       0.00393496 Ry

     iteration # 14     ecut=    60.00 Ry     beta=0.70
     Davidson diagonalization with overlap
     ethr =  2.64E-06,  avg # of iterations =  1.4

     total cpu time spent up to now is      170.7 secs

     total energy              =   -1205.32776835 Ry
     Harris-Foulkes estimate   =   -1205.32784222 Ry
     estimated scf accuracy    <       0.00071401 Ry

     iteration # 15     ecut=    60.00 Ry     beta=0.70
     Davidson diagonalization with overlap
     ethr =  4.79E-07,  avg # of iterations =  1.0

     total cpu time spent up to now is      179.5 secs

     total energy              =   -1205.32776261 Ry
     Harris-Foulkes estimate   =   -1205.32785175 Ry
     estimated scf accuracy    <       0.00081645 Ry

     iteration # 16     ecut=    60.00 Ry     beta=0.70
     Davidson diagonalization with overlap
     ethr =  4.79E-07,  avg # of iterations =  1.0

     total cpu time spent up to now is      188.3 secs

     total energy              =   -1205.32780486 Ry
     Harris-Foulkes estimate   =   -1205.32781884 Ry
     estimated scf accuracy    <       0.00014668 Ry

     iteration # 17     ecut=    60.00 Ry     beta=0.70
     Davidson diagonalization with overlap
     ethr =  9.84E-08,  avg # of iterations =  1.0

     total cpu time spent up to now is      197.1 secs

     total energy              =   -1205.32781090 Ry
     Harris-Foulkes estimate   =   -1205.32781356 Ry
     estimated scf accuracy    <       0.00002269 Ry

     iteration # 18     ecut=    60.00 Ry     beta=0.70
     Davidson diagonalization with overlap
     ethr =  1.52E-08,  avg # of iterations =  1.0

     total cpu time spent up to now is      205.9 secs

     total energy              =   -1205.32781225 Ry
     Harris-Foulkes estimate   =   -1205.32781322 Ry
     estimated scf accuracy    <       0.00001027 Ry

     iteration # 19     ecut=    60.00 Ry     beta=0.70
     Davidson diagonalization with overlap
     ethr =  6.89E-09,  avg # of iterations =  1.0

     total cpu time spent up to now is      214.7 secs

     total energy              =   -1205.32781265 Ry
     Harris-Foulkes estimate   =   -1205.32781289 Ry
     estimated scf accuracy    <       0.00000101 Ry

     iteration # 20     ecut=    60.00 Ry     beta=0.70
     Davidson diagonalization with overlap
     ethr =  6.80E-10,  avg # of iterations =  1.9

     total cpu time spent up to now is      224.0 secs

     total energy              =   -1205.32781276 Ry
     Harris-Foulkes estimate   =   -1205.32781282 Ry
     estimated scf accuracy    <       0.00000038 Ry

     iteration # 21     ecut=    60.00 Ry     beta=0.70
     Davidson diagonalization with overlap
     ethr =  2.55E-10,  avg # of iterations =  1.0

     total cpu time spent up to now is      232.8 secs

     total energy              =   -1205.32781278 Ry
     Harris-Foulkes estimate   =   -1205.32781280 Ry
     estimated scf accuracy    <       0.00000020 Ry

     iteration # 22     ecut=    60.00 Ry     beta=0.70
     Davidson diagonalization with overlap
     ethr =  1.31E-10,  avg # of iterations =  1.0

     total cpu time spent up to now is      241.6 secs

     total energy              =   -1205.32781279 Ry
     Harris-Foulkes estimate   =   -1205.32781280 Ry
     estimated scf accuracy    <       0.00000003 Ry

     iteration # 23     ecut=    60.00 Ry     beta=0.70
     Davidson diagonalization with overlap
     ethr =  2.19E-11,  avg # of iterations =  1.0

     total cpu time spent up to now is      250.4 secs

     total energy              =   -1205.32781280 Ry
     Harris-Foulkes estimate   =   -1205.32781280 Ry
     estimated scf accuracy    <       0.00000002 Ry

     iteration # 24     ecut=    60.00 Ry     beta=0.70
     Davidson diagonalization with overlap
     ethr =  1.12E-11,  avg # of iterations =  1.0

     total cpu time spent up to now is      259.2 secs

     End of self-consistent calculation

          k = 0.1667 0.0963 0.2320 ( 18618 PWs)   bands (ev):

   -66.2006 -66.1925 -66.1722 -66.1701 -36.2314 -36.2292 -36.2232 -36.2164
   -36.2094 -36.2051 -36.2027 -36.1969 -36.1859 -36.1803 -36.1458 -36.1419
   -10.0262  -9.6878  -9.4251  -9.2919  -9.2220  -9.1160  -8.9735  -8.9315
    -8.9075  -8.8745  -8.8470  -8.8266  -0.0312   0.4669   0.5712   0.6968
     0.7485   0.8762   0.9120   0.9875   1.1698   1.2306   1.2889   1.3569
     1.4032   1.4711   1.5793   1.6339   1.7989   1.9357   2.1228   2.2419
     2.2818   2.4422   2.5309   2.7906   2.8978   3.0387   3.2349   3.4058
     3.5341   3.5900   3.6746   3.7724   3.8595   3.8815   3.9908   4.0650
     5.4850   5.5105   5.5720   5.8063   5.8425   5.9015   5.9660   6.0657
     6.2694   6.3014   6.3736   6.4535   7.3889   8.0219   8.1076   8.1774
     8.2955   8.3731   8.4385   8.4900   8.7310  12.7457  13.0296  13.4032
    13.6178  13.9922

          k = 0.1667 0.0963-0.4682 ( 18621 PWs)   bands (ev):

   -66.2006 -66.1925 -66.1722 -66.1701 -36.2314 -36.2292 -36.2232 -36.2164
   -36.2094 -36.2051 -36.2027 -36.1969 -36.1859 -36.1803 -36.1458 -36.1419
    -9.9141  -9.6252  -9.4572  -9.3068  -9.1983  -9.1168  -9.0540  -8.9696
    -8.9343  -8.9079  -8.8670  -8.8258  -0.0571   0.4350   0.5209   0.7655
     0.8266   0.9224   0.9965   1.0669   1.1608   1.2207   1.2412   1.3299
     1.3815   1.4481   1.4958   1.7428   1.7831   1.9244   2.0824   2.3462
     2.4002   2.6098   2.6536   2.8139   2.9521   3.0852   3.2081   3.2779
     3.3720   3.5573   3.6587   3.7086   3.8149   3.8416   3.9337   4.0453
     5.4975   5.5412   5.6545   5.7047   5.8442   5.8767   5.8924   6.0927
     6.1972   6.2628   6.3016   6.4187   7.3227   8.1436   8.1906   8.2511
     8.2862   8.3649   8.4196   8.4811   8.8017  13.3557  13.4611  13.5598
    13.6748  13.8289

          k = 0.1667 0.0963-0.1181 ( 18613 PWs)   bands (ev):

   -66.2006 -66.1925 -66.1722 -66.1701 -36.2314 -36.2292 -36.2232 -36.2164
   -36.2094 -36.2051 -36.2027 -36.1969 -36.1859 -36.1803 -36.1458 -36.1419
   -10.0656  -9.7166  -9.3916  -9.2899  -9.2115  -9.1084  -8.9539  -8.9159
    -8.8935  -8.8759  -8.8600  -8.8215  -0.1787   0.3717   0.4560   0.6378
     0.8483   0.9290   0.9447   1.0409   1.1100   1.1672   1.2315   1.2850
     1.3359   1.4428   1.5019   1.5850   1.7680   1.8143   2.0961   2.2172
     2.4063   2.5484   2.7579   2.9359   2.9927   3.1329   3.2703   3.4463
     3.5140   3.6725   3.7138   3.8064   3.8676   4.0373   4.1099   4.2200
     5.3415   5.5289   5.5894   5.7697   5.8676   5.9591   5.9680   6.0496
     6.1986   6.2132   6.2869   6.3136   7.4672   8.1203   8.2075   8.3027
     8.3394   8.4161   8.4561   8.5458   8.6680  12.3946  12.6846  13.3069
    13.3731  13.5781

          k = 0.1667-0.2889 0.2320 ( 18610 PWs)   bands (ev):

   -66.2006 -66.1925 -66.1722 -66.1701 -36.2312 -36.2292 -36.2233 -36.2166
   -36.2089 -36.2064 -36.2026 -36.1963 -36.1846 -36.1816 -36.1456 -36.1421
    -9.9799  -9.7896  -9.3859  -9.2665  -9.2190  -9.0995  -8.9777  -8.9423
    -8.9089  -8.8953  -8.8410  -8.8231  -0.0360   0.4509   0.5368   0.7042
     0.7420   0.7853   0.9795   1.0273   1.1144   1.1602   1.2979   1.3563
     1.4063   1.5134   1.5413   1.6363   1.9168   1.9425   2.1572   2.2559
     2.3516   2.6280   2.6800   2.8105   2.8368   2.9331   3.2334   3.3573
     3.4442   3.5290   3.6666   3.7012   3.7575   3.8903   3.9241   4.0635
     5.5058   5.5741   5.6438   5.6574   5.9732   6.0186   6.0255   6.1159
     6.2409   6.3206   6.3286   6.3493   7.2856   7.9482   8.1025   8.2067
     8.2352   8.2943   8.5252   8.5773   8.7361  13.2633  13.3119  13.5172
    13.7171  13.9808

          k = 0.1667-0.2889-0.4682 ( 18628 PWs)   bands (ev):

   -66.2006 -66.1925 -66.1722 -66.1701 -36.2312 -36.2292 -36.2233 -36.2167
   -36.2089 -36.2064 -36.2026 -36.1963 -36.1846 -36.1816 -36.1456 -36.1421
    -9.8721  -9.6994  -9.4670  -9.2685  -9.2156  -9.0685  -9.0524  -8.9795
    -8.9450  -8.9093  -8.8756  -8.8230  -0.0781   0.4210   0.4791   0.7764
     0.8337   0.9566   0.9905   1.0495   1.1237   1.1364   1.2410   1.2603
     1.3599   1.4350   1.6399   1.7098   1.9814   2.0006   2.2504   2.3222
     2.3774   2.6668   2.7815   2.8327   2.8978   2.9982   3.1384   3.1908
     3.4181   3.4900   3.5266   3.6326   3.7772   3.8843   3.9183   3.9929
     5.4705   5.5559   5.7213   5.7613   5.7874   5.9978   6.0174   6.0630
     6.2222   6.2491   6.2985   6.3594   7.2605   8.0648   8.1360   8.2599
     8.3065   8.3337   8.4482   8.4676   8.8663  13.2044  13.2502  13.8497
    13.8654  14.0402

          k = 0.1667-0.2889-0.1181 ( 18626 PWs)   bands (ev):

   -66.2006 -66.1925 -66.1722 -66.1701 -36.2312 -36.2292 -36.2233 -36.2167
   -36.2089 -36.2064 -36.2027 -36.1963 -36.1846 -36.1816 -36.1456 -36.1421
   -10.0151  -9.8235  -9.3763  -9.2187  -9.2093  -9.1043  -8.9441  -8.9308
    -8.9159  -8.8791  -8.8643  -8.8222  -0.1810   0.3666   0.4535   0.5768
     0.7956   0.8443   0.9194   1.0973   1.1124   1.1550   1.2750   1.2862
     1.4038   1.4224   1.5206   1.5972   1.8912   1.9198   2.0495   2.2531
     2.4844   2.6434   2.7626   2.8213   2.9388   3.1529   3.2993   3.4005
     3.4277   3.6413   3.6634   3.7129   3.9002   3.9382   4.0825   4.2544
     5.4665   5.5545   5.6580   5.7687   5.8885   5.9656   6.0174   6.0406
     6.1741   6.2103   6.2345   6.2745   7.3992   8.0922   8.1976   8.2346
     8.3401   8.4176   8.5389   8.5790   8.6502  12.8343  12.9207  13.1100
    13.3623  13.5784

          k =-0.5000 0.0963 0.0042 ( 18623 PWs)   bands (ev):

   -66.2006 -66.1925 -66.1722 -66.1701 -36.2323 -36.2302 -36.2233 -36.2160
   -36.2097 -36.2055 -36.2005 -36.1946 -36.1847 -36.1812 -36.1476 -36.1431
    -9.8331  -9.6153  -9.4858  -9.3251  -9.2366  -9.1588  -9.0417  -8.9676
    -8.9457  -8.9088  -8.8460  -8.8211  -0.1076   0.4863   0.6026   0.7548
     0.8067   0.8683   0.9505   1.0242   1.1175   1.1645   1.2020   1.2863
     1.4110   1.4667   1.5270   1.7572   1.8725   2.0126   2.1846   2.3310
     2.4580   2.5517   2.7215   2.8880   2.9602   3.1161   3.1595   3.2638
     3.3472   3.4834   3.5586   3.6677   3.7813   3.8927   3.9138   4.0395
     5.3824   5.5311   5.5936   5.7404   5.8294   5.8984   5.9685   6.1018
     6.2915   6.3253   6.3529   6.3994   7.4645   8.0905   8.1471   8.2535
     8.2713   8.3373   8.4006   8.4853   8.7903  13.2946  13.3479  13.5686
    13.7297  13.8224

          k =-0.5000 0.0963-0.6961 ( 18660 PWs)   bands (ev):

   -66.2006 -66.1925 -66.1722 -66.1701 -36.2323 -36.2302 -36.2233 -36.2160
   -36.2097 -36.2055 -36.2006 -36.1946 -36.1847 -36.1812 -36.1476 -36.1432
    -9.7498  -9.6332  -9.4758  -9.2508  -9.2203  -9.1262  -9.0451  -8.9978
    -8.9741  -8.9473  -8.9108  -8.8788  -0.2539   0.3327   0.4549   0.7232
     0.7432   0.7921   0.9328   1.0025   1.0927   1.1087   1.2015   1.2661
     1.6319   1.6695   1.7223   1.8266   1.8998   2.0718   2.2805   2.3589
     2.4207   2.5810   2.9301   3.0203   3.0541   3.1160   3.1434   3.1616
     3.3839   3.4593   3.6408   3.7572   3.8383   3.8708   3.9332   4.0520
     5.1739   5.5023   5.5180   5.6611   5.7659   5.9112   5.9423   5.9936
     6.2386   6.2895   6.4007   6.4376   7.3725   8.0656   8.2792   8.3429
     8.4097   8.4635   8.4956   8.5418   8.7435  12.5723  12.6232  13.1376
    13.3250  13.4262

          k =-0.5000-0.2889 0.0042 ( 18636 PWs)   bands (ev):

   -66.2006 -66.1925 -66.1722 -66.1701 -36.2318 -36.2305 -36.2232 -36.2163
   -36.2095 -36.2059 -36.2007 -36.1938 -36.1843 -36.1819 -36.1471 -36.1436
    -9.8167  -9.6253  -9.4890  -9.3401  -9.2599  -9.1211  -9.0722  -8.9647
    -8.9309  -8.8946  -8.8565  -8.8134  -0.1685   0.3637   0.5798   0.7880
     0.8410   0.8962   0.9245   1.0228   1.1407   1.1527   1.1835   1.2713
     1.5122   1.5788   1.8092   1.9593   1.9758   2.1550   2.1735   2.2097
     2.2722   2.3252   2.4984   2.5366   2.9211   2.9682   3.2640   3.3707
     3.4022   3.5330   3.5644   3.6443   3.7908   3.9669   4.0544   4.1867
     5.2835   5.4143   5.4793   5.6475   5.9072   5.9627   6.1294   6.2330
     6.2662   6.2761   6.3433   6.3700   7.4314   8.0202   8.0468   8.2562
     8.3133   8.3557   8.4096   8.4430   8.8482  13.1734  13.1894  13.7285
    13.7585  14.0648

          k =-0.5000-0.2889-0.6961 ( 18708 PWs)   bands (ev):

   -66.2006 -66.1925 -66.1722 -66.1701 -36.2318 -36.2306 -36.2233 -36.2164
   -36.2096 -36.2059 -36.2008 -36.1939 -36.1844 -36.1819 -36.1471 -36.1436
    -9.7325  -9.6260  -9.5044  -9.2562  -9.2205  -9.1157  -9.1022  -8.9932
    -8.9481  -8.9330  -8.9032  -8.8732  -0.3268   0.1943   0.3889   0.7065
     0.8280   0.9129   0.9882   1.0120   1.1324   1.2261   1.2797   1.3041
     1.5980   1.6640   1.8190   2.0378   2.0554   2.1265   2.1924   2.2114
     2.2985   2.4141   2.5272   2.5718   3.1353   3.1443   3.1975   3.2795
     3.3228   3.5261   3.6889   3.7768   3.9308   3.9798   4.1072   4.1320
     5.1137   5.3942   5.4159   5.6169   5.9019   5.9189   6.0132   6.0942
     6.1508   6.2093   6.3983   6.4418   7.3950   8.1016   8.1748   8.2462
     8.3901   8.4283   8.5966   8.6132   8.7055  12.3462  12.3680  12.8995
    13.2862  14.1158

          k =-0.1667 0.0963-0.2320 ( 18618 PWs)   bands (ev):

   -66.2006 -66.1925 -66.1722 -66.1701 -36.2316 -36.2290 -36.2233 -36.2165
   -36.2093 -36.2048 -36.2032 -36.1968 -36.1860 -36.1803 -36.1458 -36.1419
   -10.0244  -9.7003  -9.3710  -9.3269  -9.2459  -9.1010  -8.9734  -8.9307
    -8.9048  -8.8787  -8.8461  -8.8265  -0.0324   0.4731   0.5681   0.6890
     0.7625   0.8834   0.9087   0.9822   1.1542   1.2368   1.2828   1.3575
     1.4011   1.4679   1.5807   1.6343   1.8116   1.9364   2.1451   2.2333
     2.2784   2.4443   2.5175   2.7771   2.8971   3.0528   3.2288   3.4169
     3.5211   3.5937   3.6769   3.7691   3.8658   3.8818   3.9882   4.0692
     5.4660   5.5197   5.5724   5.8199   5.8362   5.9018   5.9606   6.0711
     6.2664   6.3007   6.3748   6.4528   7.3902   8.0377   8.1015   8.1668
     8.2943   8.3864   8.4208   8.4977   8.7293  12.7449  13.0311  13.4043
    13.6258  13.9850

          k =-0.1667 0.0963 0.4682 ( 18621 PWs)   bands (ev):

   -66.2006 -66.1925 -66.1722 -66.1701 -36.2316 -36.2290 -36.2233 -36.2165
   -36.2093 -36.2048 -36.2032 -36.1968 -36.1860 -36.1803 -36.1458 -36.1419
    -9.9137  -9.6282  -9.4539  -9.2937  -9.2213  -9.1087  -9.0529  -8.9674
    -8.9389  -8.9048  -8.8676  -8.8258  -0.0617   0.4555   0.5196   0.7640
     0.8124   0.9239   0.9946   1.0428   1.1688   1.2245   1.2670   1.3161
     1.3773   1.4420   1.4971   1.7544   1.7767   1.9468   2.0778   2.3550
     2.3903   2.6213   2.6464   2.7940   2.9427   3.0776   3.2040   3.2941
     3.3796   3.5403   3.6646   3.7294   3.8086   3.8415   3.9356   4.0463
     5.4642   5.5498   5.6583   5.7307   5.8355   5.8750   5.8945   6.0946
     6.1962   6.2599   6.3030   6.4190   7.3228   8.1512   8.1912   8.2489
     8.2771   8.3611   8.4209   8.4854   8.8019  13.3472  13.4602  13.5708
    13.6784  13.8457

          k =-0.1667 0.0963 0.1181 ( 18613 PWs)   bands (ev):

   -66.2006 -66.1925 -66.1722 -66.1701 -36.2316 -36.2290 -36.2233 -36.2165
   -36.2093 -36.2048 -36.2032 -36.1968 -36.1860 -36.1803 -36.1458 -36.1419
   -10.0655  -9.7178  -9.3813  -9.3016  -9.2115  -9.1067  -8.9532  -8.9155
    -8.8922  -8.8764  -8.8617  -8.8209  -0.1838   0.3714   0.4616   0.6876
     0.8112   0.9014   0.9609   1.0267   1.1065   1.1696   1.2333   1.2879
     1.3335   1.4376   1.5019   1.5859   1.7552   1.8640   2.0945   2.2071
     2.4136   2.5378   2.7471   2.9144   3.0042   3.1350   3.2704   3.4547
     3.5188   3.6659   3.7142   3.8228   3.8556   4.0426   4.1115   4.2178
     5.3373   5.5244   5.5910   5.7732   5.8747   5.9392   5.9771   6.0540
     6.1967   6.2117   6.2865   6.3163   7.4704   8.1155   8.2018   8.3087
     8.3489   8.4102   8.4572   8.5443   8.6648  12.4003  12.6854  13.3102
    13.3794  13.5596

          k = 0.5000 0.0963-0.0042 ( 18623 PWs)   bands (ev):

   -66.2006 -66.1925 -66.1722 -66.1701 -36.2322 -36.2302 -36.2233 -36.2160
   -36.2097 -36.2054 -36.2005 -36.1946 -36.1847 -36.1812 -36.1476 -36.1431
    -9.8349  -9.5950  -9.5173  -9.3064  -9.2362  -9.1644  -9.0416  -8.9663
    -8.9531  -8.9017  -8.8483  -8.8206  -0.1041   0.4589   0.6304   0.7526
     0.8027   0.8661   0.9529   1.0272   1.1281   1.1707   1.1948   1.2782
     1.4114   1.4565   1.5288   1.7656   1.8731   2.0094   2.1905   2.3292
     2.4544   2.5490   2.6923   2.9133   2.9802   3.1011   3.1642   3.2723
     3.3523   3.4762   3.5640   3.6510   3.7816   3.8867   3.9175   4.0422
     5.3730   5.5413   5.5956   5.7384   5.8330   5.8983   5.9625   6.1033
     6.2915   6.3274   6.3511   6.4004   7.4599   8.0961   8.1470   8.2480
     8.2801   8.3320   8.4041   8.4891   8.7843  13.3087  13.3335  13.5649
    13.7199  13.8271

     the Fermi energy is     6.3428 ev

!    total energy              =   -1205.32781279 Ry
     Harris-Foulkes estimate   =   -1205.32781280 Ry
     estimated scf accuracy    <          2.2E-09 Ry

     The total energy is the sum of the following terms:

     one-electron contribution =    -654.71763768 Ry
     hartree contribution      =     381.53191314 Ry
     xc contribution           =    -246.35657061 Ry
     ewald contribution        =    -685.76853755 Ry
     smearing contrib. (-TS)   =      -0.01698011 Ry

     convergence has been achieved in  24 iterations

     Forces acting on atoms (Ry/au):

     atom    1 type  1   force =    -0.00878295   -0.00120210   -0.00514538
     atom    2 type  1   force =    -0.00616565    0.00154145   -0.00380542
     atom    3 type  1   force =     0.01041077   -0.00788748   -0.00828931
     atom    4 type  1   force =     0.00957259    0.00169731   -0.00911770
     atom    5 type  2   force =    -0.00549895    0.00589916    0.00475042
     atom    6 type  2   force =    -0.00191424    0.00831779    0.01257580
     atom    7 type  2   force =    -0.00660745   -0.01570463    0.02168514
     atom    8 type  2   force =    -0.00402938   -0.00491739    0.00392815
     atom    9 type  2   force =    -0.00144973    0.00432443    0.00504867
     atom   10 type  2   force =     0.00013411   -0.00335814   -0.00466699
     atom   11 type  2   force =    -0.00002153    0.00365569   -0.00460809
     atom   12 type  2   force =    -0.00150222   -0.00434762    0.00514856
     atom   13 type  2   force =     0.00601480    0.00110377    0.00814962
     atom   14 type  2   force =    -0.00798630    0.00143714   -0.01184679
     atom   15 type  2   force =    -0.00332852    0.00013531   -0.00374485
     atom   16 type  2   force =     0.00947145   -0.00062261    0.00923265
     atom   17 type  3   force =     0.01168321    0.00992791   -0.01929447

     Total force =     0.054693     Total SCF correction =     0.000139


     entering subroutine stress ...

          total   stress  (Ry/bohr**3)                   (kbar)     P=    5.62
   0.00005532  -0.00001093   0.00000890          8.14     -1.61      1.31
  -0.00001093   0.00001873   0.00001205         -1.61      2.76      1.77
   0.00000890   0.00001205   0.00004060          1.31      1.77      5.97


     BFGS Geometry Optimization

     number of scf cycles    =   1
     number of bfgs steps    =   0

     energy   new            =   -1205.3278127947 Ry

     new trust radius        =       0.0275778702 bohr
     new conv_thr            =       0.0000000100 Ry


ATOMIC_POSITIONS (crystal)
Ru      -0.000933432   0.334338491  -0.000478541
Ru      -0.000661123   0.665678873  -0.000353920
Ru       0.500670973   0.833996415  -0.000770940
Ru       0.500571683   0.165686848  -0.000847983
Cl       0.751056853   0.173801847   0.766641809
Cl       0.248811102   0.826925603   0.234969601
Cl       0.248671223   0.172696429   0.235816805
Cl       0.751162093   0.826248388   0.766565334
Cl       0.251424427   0.673721272   0.766669546
Cl       0.748470630   0.326328172   0.233365951
Cl       0.748458631   0.673687054   0.233371429
Cl       0.251422802   0.326277542   0.766678836
Cl       0.730979241   0.000056477   0.239657948
Cl       0.268734293   0.000073535   0.759998201
Cl       0.229791931   0.500006924   0.238551713
Cl       0.770918097   0.499968143   0.761958674
XXMU       0.140450576   0.010507989   0.358205537



     Writing output data file a-RuCl3.mu1.rel.1x1x1.140010360.save
     NEW-OLD atomic charge density approx. for the potential

     total cpu time spent up to now is      284.5 secs

     Self-consistent Calculation

     iteration #  1     ecut=    60.00 Ry     beta=0.70
     Davidson diagonalization with overlap
     ethr =  1.00E-06,  avg # of iterations =  4.0

     total cpu time spent up to now is      304.5 secs

     total energy              =   -1205.32983981 Ry
     Harris-Foulkes estimate   =   -1205.33065261 Ry
     estimated scf accuracy    <       0.00115081 Ry

     iteration #  2     ecut=    60.00 Ry     beta=0.70
     Davidson diagonalization with overlap
     ethr =  7.72E-07,  avg # of iterations =  7.2

     total cpu time spent up to now is      321.4 secs

     total energy              =   -1205.31862059 Ry
     Harris-Foulkes estimate   =   -1205.34457986 Ry
     estimated scf accuracy    <       0.57034679 Ry

     iteration #  3     ecut=    60.00 Ry     beta=0.70
     Davidson diagonalization with overlap
     ethr =  7.72E-07,  avg # of iterations =  7.1

     total cpu time spent up to now is      338.1 secs

     total energy              =   -1205.33015107 Ry
     Harris-Foulkes estimate   =   -1205.33074910 Ry
     estimated scf accuracy    <       0.00284644 Ry

     iteration #  4     ecut=    60.00 Ry     beta=0.70
     Davidson diagonalization with overlap
     ethr =  7.72E-07,  avg # of iterations =  2.0

     total cpu time spent up to now is      347.8 secs

     total energy              =   -1205.32987561 Ry
     Harris-Foulkes estimate   =   -1205.33108676 Ry
     estimated scf accuracy    <       0.01579903 Ry

     iteration #  5     ecut=    60.00 Ry     beta=0.70
     Davidson diagonalization with overlap
     ethr =  7.72E-07,  avg # of iterations =  2.0

     total cpu time spent up to now is      357.4 secs

     total energy              =   -1205.33031703 Ry
     Harris-Foulkes estimate   =   -1205.33070762 Ry
     estimated scf accuracy    <       0.00391106 Ry

     iteration #  6     ecut=    60.00 Ry     beta=0.70
     Davidson diagonalization with overlap
     ethr =  7.72E-07,  avg # of iterations =  2.0

     total cpu time spent up to now is      366.7 secs

     total energy              =   -1205.33046161 Ry
     Harris-Foulkes estimate   =   -1205.33063390 Ry
     estimated scf accuracy    <       0.00153956 Ry

     iteration #  7     ecut=    60.00 Ry     beta=0.70
     Davidson diagonalization with overlap
     ethr =  7.72E-07,  avg # of iterations =  1.0

     total cpu time spent up to now is      375.5 secs

     total energy              =   -1205.33054416 Ry
     Harris-Foulkes estimate   =   -1205.33055917 Ry
     estimated scf accuracy    <       0.00004261 Ry

     iteration #  8     ecut=    60.00 Ry     beta=0.70
     Davidson diagonalization with overlap
     ethr =  2.86E-08,  avg # of iterations =  2.0

     total cpu time spent up to now is      385.3 secs

     total energy              =   -1205.33055193 Ry
     Harris-Foulkes estimate   =   -1205.33055356 Ry
     estimated scf accuracy    <       0.00000389 Ry

     iteration #  9     ecut=    60.00 Ry     beta=0.70
     Davidson diagonalization with overlap
     ethr =  2.61E-09,  avg # of iterations =  2.0

     total cpu time spent up to now is      395.9 secs

     total energy              =   -1205.33055269 Ry
     Harris-Foulkes estimate   =   -1205.33055280 Ry
     estimated scf accuracy    <       0.00000038 Ry

     iteration # 10     ecut=    60.00 Ry     beta=0.70
     Davidson diagonalization with overlap
     ethr =  2.58E-10,  avg # of iterations =  2.0

     total cpu time spent up to now is      406.3 secs

     total energy              =   -1205.33055274 Ry
     Harris-Foulkes estimate   =   -1205.33055276 Ry
     estimated scf accuracy    <       0.00000007 Ry

     iteration # 11     ecut=    60.00 Ry     beta=0.70
     Davidson diagonalization with overlap
     ethr =  4.75E-11,  avg # of iterations =  2.0

     total cpu time spent up to now is      416.7 secs

     total energy              =   -1205.33055275 Ry
     Harris-Foulkes estimate   =   -1205.33055276 Ry
     estimated scf accuracy    <       0.00000002 Ry

     iteration # 12     ecut=    60.00 Ry     beta=0.70
     Davidson diagonalization with overlap
     ethr =  1.07E-11,  avg # of iterations =  2.0

     total cpu time spent up to now is      427.0 secs

     total energy              =   -1205.33055275 Ry
     Harris-Foulkes estimate   =   -1205.33055275 Ry
     estimated scf accuracy    <       0.00000006 Ry

     iteration # 13     ecut=    60.00 Ry     beta=0.70
     Davidson diagonalization with overlap
     ethr =  1.07E-11,  avg # of iterations =  1.0

     total cpu time spent up to now is      435.8 secs

     total energy              =   -1205.33055275 Ry
     Harris-Foulkes estimate   =   -1205.33055275 Ry
     estimated scf accuracy    <       0.00000003 Ry

     iteration # 14     ecut=    60.00 Ry     beta=0.70
     Davidson diagonalization with overlap
     ethr =  1.07E-11,  avg # of iterations =  1.0

     total cpu time spent up to now is      444.5 secs

     End of self-consistent calculation

          k = 0.1667 0.0963 0.2320 ( 18618 PWs)   bands (ev):

   -66.1934 -66.1843 -66.1655 -66.1629 -36.2237 -36.2233 -36.2157 -36.2107
   -36.2028 -36.1987 -36.1964 -36.1905 -36.1793 -36.1728 -36.1368 -36.1325
   -10.0121  -9.6736  -9.4130  -9.2707  -9.2009  -9.1134  -8.9873  -8.9467
    -8.9269  -8.8953  -8.8610  -8.8281  -0.0379   0.4814   0.5781   0.6970
     0.7570   0.8843   0.9179   0.9869   1.1793   1.2386   1.3041   1.3554
     1.4016   1.4662   1.5704   1.6308   1.7928   1.9290   2.1299   2.2374
     2.2873   2.4399   2.5298   2.7882   2.9014   3.0356   3.2349   3.4037
     3.5373   3.5852   3.6674   3.7689   3.8540   3.8720   3.9859   4.0599
     5.4918   5.5163   5.5790   5.8110   5.8486   5.9077   5.9736   6.0656
     6.2763   6.3059   6.3783   6.4598   7.4271   8.0207   8.1078   8.1829
     8.2980   8.3789   8.4459   8.4907   8.7460  12.7408  13.0313  13.4058
    13.6146  13.9880

          k = 0.1667 0.0963-0.4682 ( 18621 PWs)   bands (ev):

   -66.1934 -66.1843 -66.1655 -66.1629 -36.2237 -36.2233 -36.2157 -36.2107
   -36.2028 -36.1987 -36.1964 -36.1905 -36.1793 -36.1728 -36.1369 -36.1325
    -9.8964  -9.6070  -9.4368  -9.2953  -9.1824  -9.1212  -9.0603  -8.9889
    -8.9505  -8.9254  -8.8829  -8.8292  -0.0618   0.4441   0.5312   0.7722
     0.8358   0.9324   1.0044   1.0645   1.1720   1.2234   1.2432   1.3297
     1.3796   1.4421   1.4897   1.7374   1.7794   1.9253   2.0862   2.3441
     2.4008   2.6112   2.6548   2.8137   2.9491   3.0900   3.1980   3.2791
     3.3714   3.5611   3.6521   3.7032   3.8045   3.8338   3.9308   4.0380
     5.5010   5.5487   5.6593   5.7157   5.8481   5.8836   5.8963   6.0976
     6.2037   6.2673   6.3074   6.4244   7.3589   8.1432   8.1903   8.2520
     8.2928   8.3664   8.4277   8.4865   8.8147  13.3527  13.4613  13.5619
    13.6703  13.8277

          k = 0.1667 0.0963-0.1181 ( 18613 PWs)   bands (ev):

   -66.1934 -66.1843 -66.1655 -66.1629 -36.2237 -36.2233 -36.2157 -36.2107
   -36.2028 -36.1987 -36.1964 -36.1905 -36.1793 -36.1728 -36.1369 -36.1325
   -10.0525  -9.7040  -9.3717  -9.2812  -9.1807  -9.1025  -8.9788  -8.9354
    -8.9133  -8.8948  -8.8544  -8.8343  -0.1781   0.3794   0.4623   0.6370
     0.8591   0.9407   0.9588   1.0443   1.1030   1.1585   1.2498   1.2866
     1.3337   1.4454   1.4927   1.5865   1.7653   1.8034   2.0944   2.2173
     2.4063   2.5512   2.7565   2.9363   2.9951   3.1249   3.2705   3.4541
     3.5137   3.6695   3.7073   3.7986   3.8608   4.0303   4.1047   4.2147
     5.3567   5.5332   5.5960   5.7758   5.8731   5.9586   5.9751   6.0531
     6.2043   6.2180   6.2935   6.3188   7.5052   8.1150   8.2196   8.3025
     8.3430   8.4195   8.4659   8.5515   8.6751  12.3916  12.6834  13.3090
    13.3716  13.5766

          k = 0.1667-0.2889 0.2320 ( 18610 PWs)   bands (ev):

   -66.1934 -66.1843 -66.1655 -66.1629 -36.2237 -36.2230 -36.2157 -36.2113
   -36.2024 -36.1991 -36.1968 -36.1901 -36.1781 -36.1738 -36.1367 -36.1326
    -9.9625  -9.7825  -9.3678  -9.2419  -9.1965  -9.1034  -8.9864  -8.9593
    -8.9301  -8.9180  -8.8515  -8.8284  -0.0445   0.4664   0.5437   0.7077
     0.7454   0.7987   0.9709   1.0288   1.1246   1.1724   1.2993   1.3600
     1.4141   1.5197   1.5388   1.6263   1.9133   1.9436   2.1471   2.2521
     2.3435   2.6325   2.6859   2.8150   2.8340   2.9299   3.2285   3.3536
     3.4552   3.5240   3.6653   3.6897   3.7511   3.8829   3.9158   4.0610
     5.5093   5.5833   5.6489   5.6628   5.9801   6.0217   6.0297   6.1251
     6.2405   6.3268   6.3337   6.3587   7.3175   7.9482   8.1076   8.2076
     8.2447   8.2946   8.5278   8.5850   8.7523  13.2599  13.3040  13.5229
    13.7128  13.9821

          k = 0.1667-0.2889-0.4682 ( 18628 PWs)   bands (ev):

   -66.1934 -66.1843 -66.1655 -66.1629 -36.2237 -36.2230 -36.2157 -36.2113
   -36.2025 -36.1991 -36.1968 -36.1901 -36.1781 -36.1738 -36.1367 -36.1326
    -9.8508  -9.6878  -9.4493  -9.2500  -9.1992  -9.0736  -9.0613  -8.9875
    -8.9609  -8.9395  -8.8872  -8.8282  -0.0841   0.4304   0.4876   0.7878
     0.8433   0.9632   0.9970   1.0518   1.1221   1.1345   1.2493   1.2590
     1.3711   1.4315   1.6358   1.7058   1.9792   1.9975   2.2503   2.3144
     2.3719   2.6821   2.7737   2.8401   2.8942   2.9993   3.1360   3.1857
     3.4166   3.4880   3.5253   3.6226   3.7698   3.8788   3.9135   3.9879
     5.4760   5.5674   5.7245   5.7652   5.7935   6.0022   6.0171   6.0713
     6.2281   6.2572   6.3023   6.3673   7.2938   8.0673   8.1390   8.2589
     8.3092   8.3398   8.4522   8.4732   8.8819  13.2001  13.2513  13.8480
    13.8640  14.0376

          k = 0.1667-0.2889-0.1181 ( 18626 PWs)   bands (ev):

   -66.1934 -66.1843 -66.1655 -66.1629 -36.2237 -36.2230 -36.2157 -36.2113
   -36.2024 -36.1991 -36.1968 -36.1901 -36.1781 -36.1739 -36.1367 -36.1326
    -9.9986  -9.8174  -9.3547  -9.1940  -9.1796  -9.1095  -8.9702  -8.9536
    -8.9302  -8.8982  -8.8628  -8.8343  -0.1821   0.3764   0.4586   0.5820
     0.7983   0.8534   0.9301   1.0938   1.1091   1.1610   1.2785   1.2919
     1.4092   1.4236   1.5229   1.5905   1.8845   1.9174   2.0479   2.2493
     2.4736   2.6530   2.7612   2.8201   2.9448   3.1484   3.2955   3.4119
     3.4254   3.6351   3.6562   3.7064   3.8951   3.9316   4.0772   4.2497
     5.4769   5.5656   5.6647   5.7708   5.8919   5.9718   6.0173   6.0499
     6.1733   6.2162   6.2434   6.2814   7.4316   8.0870   8.2098   8.2405
     8.3424   8.4211   8.5414   8.5837   8.6665  12.8336  12.9155  13.1075
    13.3606  13.5791

          k =-0.5000 0.0963 0.0042 ( 18623 PWs)   bands (ev):

   -66.1934 -66.1842 -66.1655 -66.1630 -36.2254 -36.2234 -36.2156 -36.2105
   -36.2034 -36.1993 -36.1940 -36.1881 -36.1775 -36.1741 -36.1385 -36.1337
    -9.8087  -9.6035  -9.4623  -9.3206  -9.2248  -9.1662  -9.0438  -8.9796
    -8.9550  -8.9321  -8.8648  -8.8238  -0.1137   0.4983   0.6120   0.7557
     0.8181   0.8835   0.9579   1.0288   1.1168   1.1756   1.2003   1.2830
     1.3994   1.4692   1.5215   1.7574   1.8711   2.0168   2.1794   2.3319
     2.4634   2.5405   2.7239   2.8872   2.9602   3.1121   3.1597   3.2642
     3.3476   3.4766   3.5601   3.6674   3.7700   3.8850   3.9101   4.0336
     5.3946   5.5362   5.5954   5.7459   5.8343   5.8993   5.9765   6.1060
     6.2962   6.3297   6.3577   6.4082   7.5016   8.0915   8.1482   8.2526
     8.2738   8.3395   8.4120   8.4938   8.7984  13.2919  13.3494  13.5667
    13.7324  13.8174

          k =-0.5000 0.0963-0.6961 ( 18660 PWs)   bands (ev):

   -66.1934 -66.1842 -66.1655 -66.1630 -36.2254 -36.2234 -36.2157 -36.2105
   -36.2034 -36.1993 -36.1940 -36.1881 -36.1775 -36.1742 -36.1386 -36.1337
    -9.7234  -9.6145  -9.4499  -9.2553  -9.1897  -9.1486  -9.0546  -9.0116
    -8.9803  -8.9722  -8.9338  -8.8756  -0.2540   0.3424   0.4646   0.7342
     0.7455   0.8013   0.9384   0.9948   1.0907   1.1043   1.2149   1.2631
     1.6334   1.6745   1.7313   1.8183   1.9062   2.0536   2.2822   2.3628
     2.4223   2.5698   2.9323   3.0238   3.0520   3.1075   3.1415   3.1626
     3.3867   3.4548   3.6489   3.7486   3.8295   3.8633   3.9221   4.0476
     5.1962   5.5033   5.5254   5.6661   5.7689   5.9147   5.9426   6.0015
     6.2433   6.2989   6.4067   6.4417   7.4047   8.0717   8.2811   8.3475
     8.4068   8.4698   8.5028   8.5479   8.7513  12.5683  12.6256  13.1412
    13.3264  13.4233

          k =-0.5000-0.2889 0.0042 ( 18636 PWs)   bands (ev):

   -66.1934 -66.1842 -66.1655 -66.1630 -36.2252 -36.2234 -36.2155 -36.2111
   -36.2033 -36.1991 -36.1944 -36.1877 -36.1768 -36.1750 -36.1381 -36.1341
    -9.7917  -9.6065  -9.4753  -9.3477  -9.2352  -9.1290  -9.0701  -8.9778
    -8.9438  -8.9199  -8.8684  -8.8183  -0.1760   0.3745   0.5906   0.7948
     0.8540   0.9113   0.9329   1.0243   1.1344   1.1588   1.1803   1.2680
     1.5004   1.5761   1.8162   1.9636   1.9786   2.1587   2.1744   2.2124
     2.2699   2.3259   2.4850   2.5334   2.9182   2.9679   3.2631   3.3663
     3.4080   3.5261   3.5629   3.6372   3.7808   3.9621   4.0508   4.1822
     5.2919   5.4242   5.4803   5.6559   5.9097   5.9700   6.1309   6.2371
     6.2680   6.2867   6.3499   6.3760   7.4664   8.0235   8.0505   8.2540
     8.3182   8.3544   8.4184   8.4516   8.8585  13.1706  13.1924  13.7326
    13.7550  14.0654

          k =-0.5000-0.2889-0.6961 ( 18708 PWs)   bands (ev):

   -66.1934 -66.1843 -66.1656 -66.1630 -36.2252 -36.2234 -36.2156 -36.2111
   -36.2033 -36.1991 -36.1944 -36.1877 -36.1769 -36.1750 -36.1382 -36.1341
    -9.7047  -9.6044  -9.4840  -9.2647  -9.1901  -9.1371  -9.1096  -9.0060
    -8.9599  -8.9425  -8.9352  -8.8698  -0.3294   0.2021   0.4047   0.7117
     0.8460   0.9143   0.9840   1.0198   1.1150   1.2270   1.2813   1.3155
     1.5965   1.6614   1.8288   2.0373   2.0572   2.1343   2.1819   2.2086
     2.3041   2.4292   2.5106   2.5556   3.1278   3.1421   3.2024   3.2732
     3.3288   3.5253   3.6806   3.7746   3.9181   3.9766   4.0971   4.1330
     5.1309   5.3947   5.4259   5.6248   5.9008   5.9266   6.0240   6.0988
     6.1478   6.2214   6.4048   6.4463   7.4273   8.1045   8.1752   8.2519
     8.3865   8.4391   8.5994   8.6172   8.7187  12.3424  12.3707  12.9041
    13.2773  14.1158

          k =-0.1667 0.0963-0.2320 ( 18618 PWs)   bands (ev):

   -66.1934 -66.1843 -66.1655 -66.1629 -36.2240 -36.2230 -36.2156 -36.2108
   -36.2028 -36.1985 -36.1968 -36.1902 -36.1794 -36.1727 -36.1368 -36.1325
   -10.0102  -9.6870  -9.3487  -9.3199  -9.2235  -9.0954  -8.9874  -8.9457
    -8.9229  -8.8995  -8.8602  -8.8287  -0.0391   0.4872   0.5758   0.6889
     0.7727   0.8929   0.9092   0.9835   1.1644   1.2544   1.2841   1.3581
     1.4012   1.4622   1.5722   1.6316   1.8078   1.9288   2.1478   2.2320
     2.2842   2.4417   2.5160   2.7734   2.8983   3.0531   3.2306   3.4175
     3.5177   3.5895   3.6711   3.7632   3.8627   3.8733   3.9830   4.0644
     5.4728   5.5260   5.5781   5.8231   5.8417   5.9102   5.9687   6.0714
     6.2727   6.3056   6.3799   6.4588   7.4284   8.0373   8.1006   8.1723
     8.2969   8.3947   8.4242   8.5004   8.7439  12.7399  13.0328  13.4066
    13.6228  13.9821

          k =-0.1667 0.0963 0.4682 ( 18621 PWs)   bands (ev):

   -66.1934 -66.1843 -66.1655 -66.1629 -36.2240 -36.2230 -36.2156 -36.2108
   -36.2028 -36.1985 -36.1968 -36.1903 -36.1794 -36.1728 -36.1369 -36.1325
    -9.8962  -9.6096  -9.4336  -9.2811  -9.2101  -9.1104  -9.0588  -8.9873
    -8.9530  -8.9234  -8.8832  -8.8295  -0.0667   0.4659   0.5293   0.7666
     0.8237   0.9376   1.0010   1.0452   1.1778   1.2313   1.2618   1.3144
     1.3770   1.4349   1.4908   1.7484   1.7749   1.9468   2.0820   2.3529
     2.3912   2.6233   2.6467   2.7928   2.9408   3.0813   3.1975   3.2921
     3.3772   3.5425   3.6602   3.7250   3.8007   3.8337   3.9309   4.0394
     5.4692   5.5576   5.6580   5.7425   5.8407   5.8812   5.8993   6.0998
     6.2027   6.2641   6.3091   6.4247   7.3591   8.1537   8.1889   8.2513
     8.2781   8.3654   8.4282   8.4922   8.8143  13.3424  13.4606  13.5734
    13.6751  13.8460

          k =-0.1667 0.0963 0.1181 ( 18613 PWs)   bands (ev):

   -66.1934 -66.1843 -66.1655 -66.1629 -36.2240 -36.2230 -36.2156 -36.2108
   -36.2028 -36.1985 -36.1968 -36.1902 -36.1794 -36.1727 -36.1369 -36.1325
   -10.0525  -9.7047  -9.3619  -9.2926  -9.1808  -9.1014  -8.9777  -8.9352
    -8.9107  -8.8972  -8.8551  -8.8339  -0.1837   0.3795   0.4675   0.6876
     0.8191   0.9148   0.9773   1.0306   1.1002   1.1607   1.2526   1.2861
     1.3309   1.4395   1.4949   1.5847   1.7480   1.8605   2.0920   2.2081
     2.4126   2.5399   2.7449   2.9149   3.0059   3.1271   3.2709   3.4685
     3.5135   3.6603   3.7099   3.8179   3.8478   4.0356   4.1060   4.2126
     5.3522   5.5279   5.5971   5.7792   5.8791   5.9472   5.9775   6.0575
     6.2009   6.2178   6.2927   6.3225   7.5085   8.1103   8.2114   8.3116
     8.3545   8.4122   8.4660   8.5492   8.6721  12.3981  12.6838  13.3120
    13.3776  13.5583

          k = 0.5000 0.0963-0.0042 ( 18623 PWs)   bands (ev):

   -66.1934 -66.1842 -66.1655 -66.1630 -36.2254 -36.2234 -36.2156 -36.2105
   -36.2034 -36.1992 -36.1940 -36.1881 -36.1775 -36.1741 -36.1385 -36.1337
    -9.8109  -9.5813  -9.4994  -9.2951  -9.2249  -9.1737  -9.0426  -8.9804
    -8.9655  -8.9213  -8.8666  -8.8236  -0.1101   0.4703   0.6365   0.7587
     0.8139   0.8792   0.9617   1.0295   1.1322   1.1753   1.1974   1.2756
     1.3986   1.4589   1.5235   1.7646   1.8706   2.0146   2.1870   2.3312
     2.4570   2.5382   2.6914   2.9156   2.9817   3.0990   3.1688   3.2631
     3.3569   3.4677   3.5662   3.6488   3.7701   3.8798   3.9136   4.0362
     5.3858   5.5443   5.5977   5.7451   5.8401   5.8995   5.9678   6.1078
     6.2967   6.3320   6.3555   6.4089   7.4964   8.0993   8.1454   8.2521
     8.2802   8.3329   8.4153   8.4971   8.7929  13.3062  13.3367  13.5612
    13.7211  13.8220

     the Fermi energy is     6.3487 ev

!    total energy              =   -1205.33055275 Ry
     Harris-Foulkes estimate   =   -1205.33055275 Ry
     estimated scf accuracy    <          2.1E-09 Ry

     The total energy is the sum of the following terms:

     one-electron contribution =    -654.60990421 Ry
     hartree contribution      =     381.49319594 Ry
     xc contribution           =    -246.36062646 Ry
     ewald contribution        =    -685.83627421 Ry
     smearing contrib. (-TS)   =      -0.01694381 Ry

     convergence has been achieved in  14 iterations

     Forces acting on atoms (Ry/au):

     atom    1 type  1   force =    -0.00464228   -0.00294762   -0.00254414
     atom    2 type  1   force =    -0.00310661    0.00276278   -0.00190861
     atom    3 type  1   force =     0.00523446   -0.00292420   -0.00539748
     atom    4 type  1   force =     0.00405438   -0.00124893   -0.00565505
     atom    5 type  2   force =    -0.00460533    0.00487100    0.00270805
     atom    6 type  2   force =    -0.00113392    0.00740891    0.01020162
     atom    7 type  2   force =    -0.00616213   -0.01539101    0.01871191
     atom    8 type  2   force =    -0.00281325   -0.00401032    0.00186152
     atom    9 type  2   force =    -0.00152920    0.00338239    0.00425788
     atom   10 type  2   force =    -0.00061147   -0.00263100   -0.00376309
     atom   11 type  2   force =    -0.00027414    0.00252925   -0.00351443
     atom   12 type  2   force =    -0.00175142   -0.00379730    0.00470284
     atom   13 type  2   force =     0.00580222    0.00049052    0.00604856
     atom   14 type  2   force =    -0.00603189    0.00064588   -0.00964467
     atom   15 type  2   force =    -0.00328102   -0.00003345   -0.00333375
     atom   16 type  2   force =     0.00815359   -0.00060857    0.00752324
     atom   17 type  3   force =     0.01269800    0.01150170   -0.02025439

     Total force =     0.046892     Total SCF correction =     0.000196


     entering subroutine stress ...

          total   stress  (Ry/bohr**3)                   (kbar)     P=    5.67
   0.00005712  -0.00001115   0.00000845          8.40     -1.64      1.24
  -0.00001115   0.00001628   0.00001367         -1.64      2.40      2.01
   0.00000845   0.00001367   0.00004227          1.24      2.01      6.22


     number of scf cycles    =   2
     number of bfgs steps    =   1

     energy   old            =   -1205.3278127947 Ry
     energy   new            =   -1205.3305527500 Ry

     CASE: energy  _new < energy  _old


     WARNING: bfgs curvature condition failed, Theta= 0.961
     new trust radius        =       0.0303356572 bohr
     new conv_thr            =       0.0000000100 Ry


ATOMIC_POSITIONS (crystal)
Ru      -0.001612257   0.334185763  -0.000814178
Ru      -0.001130236   0.665827358  -0.000604437
Ru       0.501112800   0.833758791  -0.001421596
Ru       0.500886356   0.165650517  -0.001539808
Cl       0.750674051   0.174104557   0.766982086
Cl       0.249053785   0.827377609   0.236127113
Cl       0.248707939   0.171777697   0.237907628
Cl       0.750926850   0.825998386   0.766814734
Cl       0.251424612   0.673934405   0.767147981
Cl       0.748285180   0.326162457   0.232938320
Cl       0.748304199   0.673851857   0.232966222
Cl       0.251416927   0.326044788   0.767197271
Cl       0.731809315   0.000093516   0.240360449
Cl       0.267714650   0.000122097   0.758904874
Cl       0.229333116   0.500007106   0.238181981
Cl       0.772063461   0.499931794   0.762811319
XXMU       0.141029253   0.011171301   0.356040040



     Writing output data file a-RuCl3.mu1.rel.1x1x1.140010360.save
     NEW-OLD atomic charge density approx. for the potential

     total cpu time spent up to now is      468.5 secs

     Self-consistent Calculation

     iteration #  1     ecut=    60.00 Ry     beta=0.70
     Davidson diagonalization with overlap
     ethr =  1.00E-06,  avg # of iterations =  4.0

     total cpu time spent up to now is      488.1 secs

     total energy              =   -1205.33200458 Ry
     Harris-Foulkes estimate   =   -1205.33313379 Ry
     estimated scf accuracy    <       0.00148685 Ry

     iteration #  2     ecut=    60.00 Ry     beta=0.70
     Davidson diagonalization with overlap
     ethr =  9.98E-07,  avg # of iterations =  7.4

     total cpu time spent up to now is      505.6 secs

     total energy              =   -1205.31694766 Ry
     Harris-Foulkes estimate   =   -1205.35435379 Ry
     estimated scf accuracy    <       0.77356074 Ry

     iteration #  3     ecut=    60.00 Ry     beta=0.70
     Davidson diagonalization with overlap
     ethr =  9.98E-07,  avg # of iterations =  7.4

     total cpu time spent up to now is      522.8 secs

     total energy              =   -1205.33254022 Ry
     Harris-Foulkes estimate   =   -1205.33325040 Ry
     estimated scf accuracy    <       0.00323137 Ry

     iteration #  4     ecut=    60.00 Ry     beta=0.70
     Davidson diagonalization with overlap
     ethr =  9.98E-07,  avg # of iterations =  2.0

     total cpu time spent up to now is      532.4 secs

     total energy              =   -1205.33239492 Ry
     Harris-Foulkes estimate   =   -1205.33352557 Ry
     estimated scf accuracy    <       0.01416695 Ry

     iteration #  5     ecut=    60.00 Ry     beta=0.70
     Davidson diagonalization with overlap
     ethr =  9.98E-07,  avg # of iterations =  2.0

     total cpu time spent up to now is      542.0 secs

     total energy              =   -1205.33270782 Ry
     Harris-Foulkes estimate   =   -1205.33328848 Ry
     estimated scf accuracy    <       0.00659505 Ry

     iteration #  6     ecut=    60.00 Ry     beta=0.70
     Davidson diagonalization with overlap
     ethr =  9.98E-07,  avg # of iterations =  1.9

     total cpu time spent up to now is      551.2 secs

     total energy              =   -1205.33297681 Ry
     Harris-Foulkes estimate   =   -1205.33308356 Ry
     estimated scf accuracy    <       0.00085763 Ry

     iteration #  7     ecut=    60.00 Ry     beta=0.70
     Davidson diagonalization with overlap
     ethr =  5.76E-07,  avg # of iterations =  1.0

     total cpu time spent up to now is      559.9 secs

     total energy              =   -1205.33302740 Ry
     Harris-Foulkes estimate   =   -1205.33303937 Ry
     estimated scf accuracy    <       0.00003131 Ry

     iteration #  8     ecut=    60.00 Ry     beta=0.70
     Davidson diagonalization with overlap
     ethr =  2.10E-08,  avg # of iterations =  2.0

     total cpu time spent up to now is      569.8 secs

     total energy              =   -1205.33303361 Ry
     Harris-Foulkes estimate   =   -1205.33303511 Ry
     estimated scf accuracy    <       0.00000387 Ry

     iteration #  9     ecut=    60.00 Ry     beta=0.70
     Davidson diagonalization with overlap
     ethr =  2.60E-09,  avg # of iterations =  2.0

     total cpu time spent up to now is      580.1 secs

     total energy              =   -1205.33303429 Ry
     Harris-Foulkes estimate   =   -1205.33303441 Ry
     estimated scf accuracy    <       0.00000063 Ry

     iteration # 10     ecut=    60.00 Ry     beta=0.70
     Davidson diagonalization with overlap
     ethr =  4.25E-10,  avg # of iterations =  1.5

     total cpu time spent up to now is      589.1 secs

     total energy              =   -1205.33303434 Ry
     Harris-Foulkes estimate   =   -1205.33303436 Ry
     estimated scf accuracy    <       0.00000009 Ry

     iteration # 11     ecut=    60.00 Ry     beta=0.70
     Davidson diagonalization with overlap
     ethr =  6.30E-11,  avg # of iterations =  2.0

     total cpu time spent up to now is      599.6 secs

     total energy              =   -1205.33303435 Ry
     Harris-Foulkes estimate   =   -1205.33303436 Ry
     estimated scf accuracy    <       0.00000004 Ry

     iteration # 12     ecut=    60.00 Ry     beta=0.70
     Davidson diagonalization with overlap
     ethr =  2.40E-11,  avg # of iterations =  2.0

     total cpu time spent up to now is      609.7 secs

     total energy              =   -1205.33303435 Ry
     Harris-Foulkes estimate   =   -1205.33303436 Ry
     estimated scf accuracy    <       0.00000020 Ry

     iteration # 13     ecut=    60.00 Ry     beta=0.70
     Davidson diagonalization with overlap
     ethr =  2.40E-11,  avg # of iterations =  1.0

     total cpu time spent up to now is      618.4 secs

     total energy              =   -1205.33303435 Ry
     Harris-Foulkes estimate   =   -1205.33303436 Ry
     estimated scf accuracy    <       0.00000005 Ry

     iteration # 14     ecut=    60.00 Ry     beta=0.70
     Davidson diagonalization with overlap
     ethr =  2.40E-11,  avg # of iterations =  1.0

     total cpu time spent up to now is      627.1 secs

     End of self-consistent calculation

          k = 0.1667 0.0963 0.2320 ( 18618 PWs)   bands (ev):

   -66.1861 -66.1758 -66.1606 -66.1576 -36.2196 -36.2163 -36.2092 -36.2056
   -36.1975 -36.1918 -36.1900 -36.1848 -36.1737 -36.1652 -36.1298 -36.1247
   -10.0042  -9.6656  -9.4080  -9.2537  -9.1843  -9.1069  -8.9999  -8.9614
    -8.9387  -8.9118  -8.8701  -8.8252  -0.0554   0.4910   0.5835   0.6965
     0.7628   0.8882   0.9244   0.9855   1.1816   1.2446   1.3186   1.3559
     1.4022   1.4640   1.5620   1.6297   1.7894   1.9237   2.1356   2.2341
     2.2922   2.4378   2.5301   2.7875   2.9048   3.0329   3.2343   3.3992
     3.5399   3.5835   3.6628   3.7663   3.8487   3.8668   3.9835   4.0580
     5.4965   5.5217   5.5857   5.8133   5.8538   5.9126   5.9804   6.0666
     6.2822   6.3096   6.3832   6.4658   7.4665   8.0163   8.1078   8.1878
     8.2990   8.3838   8.4524   8.4934   8.7642  12.7358  13.0315  13.4078
    13.6106  13.9822

          k = 0.1667 0.0963-0.4682 ( 18621 PWs)   bands (ev):

   -66.1861 -66.1758 -66.1606 -66.1576 -36.2196 -36.2163 -36.2092 -36.2056
   -36.1975 -36.1918 -36.1900 -36.1848 -36.1737 -36.1652 -36.1298 -36.1247
    -9.8861  -9.5967  -9.4246  -9.2863  -9.1706  -9.1212  -9.0635  -9.0056
    -8.9631  -8.9367  -8.8947  -8.8282  -0.0782   0.4502   0.5391   0.7759
     0.8421   0.9402   1.0100   1.0626   1.1803   1.2178   1.2506   1.3293
     1.3795   1.4385   1.4860   1.7325   1.7788   1.9261   2.0901   2.3415
     2.4021   2.6118   2.6578   2.8152   2.9482   3.0928   3.1866   3.2807
     3.3720   3.5640   3.6477   3.6981   3.7943   3.8304   3.9305   4.0344
     5.5033   5.5551   5.6614   5.7255   5.8513   5.8898   5.9005   6.1022
     6.2099   6.2713   6.3129   6.4299   7.3964   8.1398   8.1886   8.2529
     8.2985   8.3657   8.4366   8.4928   8.8312  13.3490  13.4599  13.5627
    13.6650  13.8244

          k = 0.1667 0.0963-0.1181 ( 18613 PWs)   bands (ev):

   -66.1861 -66.1758 -66.1606 -66.1576 -36.2196 -36.2162 -36.2092 -36.2056
   -36.1975 -36.1918 -36.1900 -36.1848 -36.1737 -36.1652 -36.1298 -36.1247
   -10.0451  -9.6972  -9.3604  -9.2752  -9.1535  -9.0941  -8.9993  -8.9532
    -8.9283  -8.9092  -8.8482  -8.8410  -0.1867   0.3840   0.4673   0.6331
     0.8663   0.9467   0.9706   1.0468   1.0967   1.1520   1.2605   1.2915
     1.3346   1.4467   1.4862   1.5903   1.7635   1.7935   2.0929   2.2185
     2.4074   2.5526   2.7557   2.9356   2.9983   3.1186   3.2713   3.4564
     3.5171   3.6669   3.7034   3.7925   3.8559   4.0259   4.1017   4.2119
     5.3699   5.5369   5.6019   5.7804   5.8771   5.9572   5.9825   6.0565
     6.2094   6.2221   6.3002   6.3241   7.5443   8.1077   8.2311   8.3002
     8.3446   8.4235   8.4755   8.5589   8.6847  12.3878  12.6810  13.3104
    13.3697  13.5748

          k = 0.1667-0.2889 0.2320 ( 18610 PWs)   bands (ev):

   -66.1861 -66.1758 -66.1606 -66.1576 -36.2195 -36.2161 -36.2086 -36.2068
   -36.1967 -36.1930 -36.1894 -36.1848 -36.1728 -36.1659 -36.1297 -36.1248
    -9.9526  -9.7785  -9.3597  -9.2209  -9.1772  -9.1037  -8.9966  -8.9743
    -8.9455  -8.9329  -8.8589  -8.8283  -0.0640   0.4768   0.5495   0.7096
     0.7472   0.8103   0.9619   1.0291   1.1308   1.1822   1.3000   1.3629
     1.4245   1.5257   1.5379   1.6183   1.9109   1.9471   2.1374   2.2498
     2.3355   2.6343   2.6902   2.8154   2.8372   2.9290   3.2241   3.3503
     3.4640   3.5224   3.6637   3.6809   3.7471   3.8791   3.9093   4.0611
     5.5106   5.5911   5.6539   5.6679   5.9839   6.0233   6.0342   6.1344
     6.2403   6.3319   6.3383   6.3683   7.3506   7.9449   8.1124   8.2067
     8.2552   8.2929   8.5289   8.5929   8.7744  13.2553  13.2950  13.5266
    13.7083  13.9815

          k = 0.1667-0.2889-0.4682 ( 18628 PWs)   bands (ev):

   -66.1861 -66.1758 -66.1606 -66.1576 -36.2195 -36.2162 -36.2086 -36.2069
   -36.1968 -36.1930 -36.1894 -36.1848 -36.1728 -36.1659 -36.1297 -36.1248
    -9.8384  -9.6805  -9.4402  -9.2367  -9.1840  -9.0766  -9.0662  -8.9958
    -8.9719  -8.9607  -8.8962  -8.8288  -0.1017   0.4370   0.4938   0.7961
     0.8497   0.9681   1.0025   1.0525   1.1169   1.1372   1.2536   1.2606
     1.3798   1.4291   1.6333   1.7044   1.9782   1.9965   2.2474   2.3085
     2.3690   2.6934   2.7657   2.8469   2.8933   3.0016   3.1349   3.1826
     3.4113   3.4886   3.5244   3.6154   3.7632   3.8758   3.9105   3.9873
     5.4789   5.5778   5.7259   5.7686   5.8004   6.0041   6.0181   6.0798
     6.2326   6.2652   6.3047   6.3754   7.3287   8.0668   8.1407   8.2564
     8.3100   8.3453   8.4582   8.4790   8.9016  13.1954  13.2511  13.8421
    13.8625  14.0352

          k = 0.1667-0.2889-0.1181 ( 18626 PWs)   bands (ev):

   -66.1861 -66.1758 -66.1606 -66.1576 -36.2194 -36.2161 -36.2086 -36.2069
   -36.1968 -36.1930 -36.1894 -36.1848 -36.1728 -36.1659 -36.1297 -36.1248
    -9.9892  -9.8140  -9.3438  -9.1724  -9.1528  -9.1120  -8.9932  -8.9719
    -8.9438  -8.9119  -8.8556  -8.8432  -0.1929   0.3824   0.4631   0.5862
     0.7973   0.8596   0.9375   1.0900   1.1055   1.1652   1.2750   1.3053
     1.4059   1.4328   1.5266   1.5851   1.8800   1.9165   2.0453   2.2470
     2.4633   2.6595   2.7604   2.8202   2.9492   3.1468   3.2910   3.4140
     3.4339   3.6301   3.6501   3.7020   3.8911   3.9285   4.0734   4.2473
     5.4828   5.5761   5.6719   5.7719   5.8952   5.9773   6.0163   6.0597
     6.1720   6.2213   6.2521   6.2886   7.4649   8.0793   8.2216   8.2430
     8.3440   8.4240   8.5458   8.5872   8.6877  12.8320  12.9088  13.1035
    13.3586  13.5801

          k =-0.5000 0.0963 0.0042 ( 18623 PWs)   bands (ev):

   -66.1861 -66.1758 -66.1606 -66.1577 -36.2211 -36.2162 -36.2089 -36.2059
   -36.1980 -36.1927 -36.1878 -36.1821 -36.1712 -36.1671 -36.1314 -36.1259
    -9.7944  -9.5978  -9.4451  -9.3191  -9.2204  -9.1612  -9.0467  -8.9917
    -8.9622  -8.9467  -8.8781  -8.8224  -0.1309   0.5074   0.6181   0.7546
     0.8272   0.8943   0.9647   1.0329   1.1154   1.1818   1.2010   1.2806
     1.3895   1.4732   1.5175   1.7566   1.8712   2.0189   2.1777   2.3328
     2.4682   2.5335   2.7268   2.8828   2.9614   3.1079   3.1597   3.2645
     3.3493   3.4723   3.5615   3.6685   3.7605   3.8794   3.9085   4.0311
     5.4048   5.5414   5.5966   5.7493   5.8390   5.9005   5.9836   6.1090
     6.3008   6.3339   6.3620   6.4160   7.5391   8.0902   8.1478   8.2500
     8.2761   8.3417   8.4219   8.5030   8.8114  13.2883  13.3495  13.5634
    13.7350  13.8108

          k =-0.5000 0.0963-0.6961 ( 18660 PWs)   bands (ev):

   -66.1861 -66.1758 -66.1606 -66.1577 -36.2211 -36.2162 -36.2089 -36.2059
   -36.1980 -36.1927 -36.1878 -36.1822 -36.1712 -36.1672 -36.1315 -36.1259
    -9.7099  -9.5989  -9.4342  -9.2561  -9.1678  -9.1613  -9.0628  -9.0218
    -8.9942  -8.9849  -8.9491  -8.8693  -0.2644   0.3496   0.4725   0.7307
     0.7578   0.8078   0.9413   0.9887   1.0883   1.1018   1.2259   1.2614
     1.6314   1.6783   1.7400   1.8120   1.9111   2.0404   2.2827   2.3665
     2.4249   2.5623   2.9300   3.0279   3.0499   3.0998   3.1399   3.1690
     3.3882   3.4516   3.6544   3.7415   3.8238   3.8579   3.9139   4.0457
     5.2163   5.5038   5.5323   5.6702   5.7719   5.9168   5.9443   6.0078
     6.2480   6.3072   6.4123   6.4456   7.4370   8.0755   8.2830   8.3491
     8.4022   8.4758   8.5109   8.5556   8.7622  12.5641  12.6271  13.1448
    13.3258  13.4192

          k =-0.5000-0.2889 0.0042 ( 18636 PWs)   bands (ev):

   -66.1861 -66.1758 -66.1606 -66.1577 -36.2210 -36.2161 -36.2081 -36.2072
   -36.1980 -36.1921 -36.1882 -36.1819 -36.1706 -36.1678 -36.1311 -36.1262
    -9.7772  -9.5946  -9.4687  -9.3509  -9.2161  -9.1311  -9.0686  -8.9914
    -8.9562  -8.9351  -8.8758  -8.8186  -0.1936   0.3831   0.5980   0.7988
     0.8637   0.9219   0.9410   1.0251   1.1260   1.1658   1.1786   1.2659
     1.4893   1.5752   1.8209   1.9640   1.9824   2.1621   2.1745   2.2168
     2.2694   2.3270   2.4753   2.5333   2.9163   2.9670   3.2614   3.3622
     3.4125   3.5219   3.5629   3.6325   3.7721   3.9595   4.0482   4.1813
     5.2984   5.4341   5.4815   5.6616   5.9109   5.9780   6.1292   6.2420
     6.2701   6.2970   6.3556   6.3814   7.5019   8.0242   8.0535   8.2506
     8.3224   8.3506   8.4280   8.4608   8.8737  13.1673  13.1943  13.7352
    13.7507  14.0657

          k =-0.5000-0.2889-0.6961 ( 18708 PWs)   bands (ev):

   -66.1861 -66.1758 -66.1606 -66.1577 -36.2210 -36.2162 -36.2082 -36.2072
   -36.1981 -36.1921 -36.1883 -36.1820 -36.1706 -36.1679 -36.1312 -36.1263
    -9.6903  -9.5868  -9.4719  -9.2696  -9.1653  -9.1532  -9.1132  -9.0164
    -8.9728  -8.9599  -8.9456  -8.8637  -0.3411   0.2081   0.4184   0.7148
     0.8594   0.9139   0.9790   1.0263   1.0991   1.2260   1.2816   1.3270
     1.5970   1.6592   1.8338   2.0347   2.0598   2.1400   2.1747   2.2099
     2.3095   2.4395   2.4989   2.5449   3.1190   3.1401   3.2086   3.2683
     3.3355   3.5268   3.6682   3.7743   3.9073   3.9751   4.0901   4.1363
     5.1471   5.3935   5.4362   5.6312   5.8980   5.9335   6.0341   6.1049
     6.1442   6.2329   6.4110   6.4505   7.4594   8.1063   8.1753   8.2543
     8.3816   8.4507   8.6039   8.6189   8.7365  12.3385  12.3725  12.9083
    13.2681  14.1138

          k =-0.1667 0.0963-0.2320 ( 18618 PWs)   bands (ev):

   -66.1861 -66.1758 -66.1606 -66.1576 -36.2196 -36.2163 -36.2089 -36.2059
   -36.1971 -36.1929 -36.1895 -36.1845 -36.1739 -36.1652 -36.1298 -36.1247
   -10.0022  -9.6797  -9.3403  -9.3104  -9.2042  -9.0869  -9.0006  -8.9598
    -8.9335  -8.9166  -8.8696  -8.8260  -0.0568   0.4965   0.5819   0.6883
     0.7799   0.8956   0.9132   0.9840   1.1689   1.2628   1.2896   1.3590
     1.4049   1.4596   1.5643   1.6315   1.8068   1.9228   2.1496   2.2318
     2.2889   2.4392   2.5157   2.7708   2.8998   3.0544   3.2312   3.4160
     3.5125   3.5891   3.6683   3.7585   3.8586   3.8698   3.9805   4.0627
     5.4773   5.5317   5.5833   5.8253   5.8465   5.9167   5.9755   6.0727
     6.2778   6.3097   6.3853   6.4644   7.4676   8.0339   8.0997   8.1767
     8.2980   8.4010   8.4285   8.5047   8.7615  12.7348  13.0329  13.4083
    13.6192  13.9780

          k =-0.1667 0.0963 0.4682 ( 18621 PWs)   bands (ev):

   -66.1861 -66.1758 -66.1606 -66.1576 -36.2196 -36.2163 -36.2089 -36.2059
   -36.1971 -36.1929 -36.1895 -36.1845 -36.1739 -36.1652 -36.1298 -36.1247
    -9.8860  -9.5989  -9.4216  -9.2723  -9.2013  -9.1080  -9.0617  -9.0046
    -8.9640  -8.9354  -8.8952  -8.8284  -0.0833   0.4736   0.5365   0.7665
     0.8317   0.9492   1.0050   1.0474   1.1832   1.2369   1.2563   1.3127
     1.3776   1.4309   1.4870   1.7431   1.7766   1.9473   2.0861   2.3502
     2.3928   2.6256   2.6477   2.7928   2.9408   3.0831   3.1899   3.2905
     3.3762   3.5439   3.6574   3.7217   3.7928   3.8307   3.9289   4.0358
     5.4721   5.5647   5.6559   5.7534   5.8449   5.8873   5.9038   6.1044
     6.2090   6.2676   6.3151   6.4302   7.3966   8.1537   8.1853   8.2531
     8.2776   8.3683   8.4367   8.4997   8.8302  13.3366  13.4597  13.5751
    13.6706  13.8449

          k =-0.1667 0.0963 0.1181 ( 18613 PWs)   bands (ev):

   -66.1861 -66.1758 -66.1606 -66.1576 -36.2196 -36.2163 -36.2089 -36.2059
   -36.1971 -36.1929 -36.1895 -36.1845 -36.1739 -36.1651 -36.1298 -36.1247
   -10.0452  -9.6973  -9.3526  -9.2845  -9.1536  -9.0941  -8.9975  -8.9526
    -8.9259  -8.9118  -8.8486  -8.8407  -0.1929   0.3845   0.4724   0.6849
     0.8228   0.9242   0.9890   1.0339   1.0944   1.1538   1.2663   1.2852
     1.3315   1.4400   1.4910   1.5858   1.7416   1.8585   2.0902   2.2097
     2.4125   2.5406   2.7430   2.9142   3.0081   3.1207   3.2720   3.4793
     3.5102   3.6554   3.7082   3.8147   3.8423   4.0306   4.1034   4.2096
     5.3654   5.5300   5.6026   5.7842   5.8828   5.9528   5.9790   6.0609
     6.2045   6.2232   6.2990   6.3287   7.5478   8.1026   8.2203   8.3130
     8.3574   8.4153   8.4750   8.5557   8.6816  12.3954  12.6811  13.3127
    13.3751  13.5573

          k = 0.5000 0.0963-0.0042 ( 18623 PWs)   bands (ev):

   -66.1861 -66.1758 -66.1606 -66.1577 -36.2211 -36.2162 -36.2089 -36.2059
   -36.1980 -36.1927 -36.1878 -36.1822 -36.1712 -36.1671 -36.1314 -36.1259
    -9.7969  -9.5747  -9.4868  -9.2873  -9.2214  -9.1700  -9.0443  -8.9939
    -8.9758  -8.9326  -8.8799  -8.8222  -0.1271   0.4785   0.6403   0.7619
     0.8224   0.8888   0.9697   1.0316   1.1345   1.1760   1.2017   1.2740
     1.3884   1.4622   1.5196   1.7629   1.8699   2.0171   2.1875   2.3336
     2.4583   2.5316   2.6900   2.9167   2.9840   3.0961   3.1739   3.2540
     3.3628   3.4615   3.5680   3.6479   3.7609   3.8750   3.9115   4.0338
     5.3962   5.5480   5.5993   5.7493   5.8466   5.9013   5.9721   6.1112
     6.3020   6.3363   6.3595   6.4165   7.5332   8.1006   8.1418   8.2543
     8.2812   8.3334   8.4250   8.5056   8.8065  13.3032  13.3383  13.5556
    13.7218  13.8166

     the Fermi energy is     6.3541 ev

!    total energy              =   -1205.33303435 Ry
     Harris-Foulkes estimate   =   -1205.33303436 Ry
     estimated scf accuracy    <          2.7E-09 Ry

     The total energy is the sum of the following terms:

     one-electron contribution =    -654.48587968 Ry
     hartree contribution      =     381.44530506 Ry
     xc contribution           =    -246.36509164 Ry
     ewald contribution        =    -685.91046628 Ry
     smearing contrib. (-TS)   =      -0.01690181 Ry

     convergence has been achieved in  14 iterations

     Forces acting on atoms (Ry/au):

     atom    1 type  1   force =    -0.00147340   -0.00417691   -0.00034424
     atom    2 type  1   force =    -0.00067507    0.00353233   -0.00027828
     atom    3 type  1   force =     0.00119059    0.00085966   -0.00289135
     atom    4 type  1   force =    -0.00025249   -0.00365642   -0.00270852
     atom    5 type  2   force =    -0.00405528    0.00380609    0.00104246
     atom    6 type  2   force =    -0.00058443    0.00662629    0.00814835
     atom    7 type  2   force =    -0.00604893   -0.01547256    0.01633813
     atom    8 type  2   force =    -0.00193180   -0.00302089    0.00014304
     atom    9 type  2   force =    -0.00145332    0.00264758    0.00349418
     atom   10 type  2   force =    -0.00131621   -0.00212641   -0.00300717
     atom   11 type  2   force =    -0.00055685    0.00172173   -0.00263468
     atom   12 type  2   force =    -0.00182524   -0.00339589    0.00424327
     atom   13 type  2   force =     0.00543217    0.00001108    0.00419459
     atom   14 type  2   force =    -0.00441032    0.00000585   -0.00754732
     atom   15 type  2   force =    -0.00315281   -0.00018495   -0.00282996
     atom   16 type  2   force =     0.00712317   -0.00065095    0.00620164
     atom   17 type  3   force =     0.01399020    0.01347438   -0.02156416

     Total force =     0.043768     Total SCF correction =     0.000145


     entering subroutine stress ...

          total   stress  (Ry/bohr**3)                   (kbar)     P=    5.76
   0.00005917  -0.00001167   0.00000828          8.70     -1.72      1.22
  -0.00001167   0.00001362   0.00001557         -1.72      2.00      2.29
   0.00000828   0.00001557   0.00004465          1.22      2.29      6.57


     number of scf cycles    =   3
     number of bfgs steps    =   2

     energy   old            =   -1205.3305527500 Ry
     energy   new            =   -1205.3330343527 Ry

     CASE: energy  _new < energy  _old

     new trust radius        =       0.0455034858 bohr
     new conv_thr            =       0.0000000100 Ry


ATOMIC_POSITIONS (crystal)
Ru      -0.002269830   0.333914729  -0.001106641
Ru      -0.001560870   0.666070999  -0.000823207
Ru       0.501492609   0.833591323  -0.002134746
Ru       0.501076778   0.165488813  -0.002275347
Cl       0.750125382   0.174483432   0.767327086
Cl       0.249384089   0.827983479   0.237598502
Cl       0.248700495   0.170465207   0.240681515
Cl       0.750613651   0.825691189   0.767025591
Cl       0.251412114   0.674203947   0.767761821
Cl       0.747984734   0.325949155   0.232394026
Cl       0.748084723   0.674050264   0.232463460
Cl       0.251392135   0.325731983   0.767893646
Cl       0.732904468   0.000124443   0.241201573
Cl       0.266453637   0.000161884   0.757531972
Cl       0.228707881   0.500000290   0.237701950
Cl       0.773574559   0.499877638   0.763914168
XXMU       0.141923445   0.012211226   0.352844633



     Writing output data file a-RuCl3.mu1.rel.1x1x1.140010360.save
     NEW-OLD atomic charge density approx. for the potential

     total cpu time spent up to now is      651.2 secs

     Self-consistent Calculation

     iteration #  1     ecut=    60.00 Ry     beta=0.70
     Davidson diagonalization with overlap
     ethr =  1.00E-06,  avg # of iterations =  4.2

     total cpu time spent up to now is      671.2 secs

     total energy              =   -1205.33379699 Ry
     Harris-Foulkes estimate   =   -1205.33635198 Ry
     estimated scf accuracy    <       0.00325334 Ry

     iteration #  2     ecut=    60.00 Ry     beta=0.70
     Davidson diagonalization with overlap
     ethr =  2.18E-06,  avg # of iterations =  8.0

     total cpu time spent up to now is      689.6 secs

     total energy              =   -1205.30988782 Ry
     Harris-Foulkes estimate   =   -1205.38106223 Ry
     estimated scf accuracy    <       1.20432929 Ry

     iteration #  3     ecut=    60.00 Ry     beta=0.70
     Davidson diagonalization with overlap
     ethr =  2.18E-06,  avg # of iterations =  7.9

     total cpu time spent up to now is      707.5 secs

     total energy              =   -1205.33526095 Ry
     Harris-Foulkes estimate   =   -1205.33662334 Ry
     estimated scf accuracy    <       0.00658103 Ry

     iteration #  4     ecut=    60.00 Ry     beta=0.70
     Davidson diagonalization with overlap
     ethr =  2.18E-06,  avg # of iterations =  2.0

     total cpu time spent up to now is      717.1 secs

     total energy              =   -1205.33565269 Ry
     Harris-Foulkes estimate   =   -1205.33656844 Ry
     estimated scf accuracy    <       0.00731373 Ry

     iteration #  5     ecut=    60.00 Ry     beta=0.70
     Davidson diagonalization with overlap
     ethr =  2.18E-06,  avg # of iterations =  2.0

     total cpu time spent up to now is      726.3 secs

     total energy              =   -1205.33589519 Ry
     Harris-Foulkes estimate   =   -1205.33632070 Ry
     estimated scf accuracy    <       0.00383339 Ry

     iteration #  6     ecut=    60.00 Ry     beta=0.70
     Davidson diagonalization with overlap
     ethr =  2.18E-06,  avg # of iterations =  1.0

     total cpu time spent up to now is      735.0 secs

     total energy              =   -1205.33597300 Ry
     Harris-Foulkes estimate   =   -1205.33634918 Ry
     estimated scf accuracy    <       0.00562179 Ry

     iteration #  7     ecut=    60.00 Ry     beta=0.70
     Davidson diagonalization with overlap
     ethr =  2.18E-06,  avg # of iterations =  1.0

     total cpu time spent up to now is      743.7 secs

     total energy              =   -1205.33616022 Ry
     Harris-Foulkes estimate   =   -1205.33618046 Ry
     estimated scf accuracy    <       0.00007510 Ry

     iteration #  8     ecut=    60.00 Ry     beta=0.70
     Davidson diagonalization with overlap
     ethr =  5.04E-08,  avg # of iterations =  2.0

[...]
     Harris-Foulkes estimate   =   -1205.41021163 Ry
     estimated scf accuracy    <          9.4E-10 Ry

     iteration #  9     ecut=    60.00 Ry     beta=0.70
     Davidson diagonalization with overlap
     ethr =  6.32E-13,  avg # of iterations =  2.0

     total cpu time spent up to now is    19323.8 secs

     total energy              =   -1205.41021163 Ry
     Harris-Foulkes estimate   =   -1205.41021163 Ry
     estimated scf accuracy    <          2.9E-10 Ry

     iteration # 10     ecut=    60.00 Ry     beta=0.70
     Davidson diagonalization with overlap
     ethr =  1.95E-13,  avg # of iterations =  2.0

     total cpu time spent up to now is    19333.6 secs

     End of self-consistent calculation

          k = 0.1667 0.0963 0.2320 ( 18618 PWs)   bands (ev):

   -66.1624 -66.1325 -66.0578 -65.9726 -36.2582 -36.2474 -36.2069 -36.1966
   -36.0993 -36.0696 -36.0544 -36.0490 -36.0342 -36.0260 -35.9899 -35.9657
   -11.3031  -9.7436  -9.4775  -9.2892  -9.1204  -8.9956  -8.9379  -8.8964
    -8.8705  -8.8408  -8.8099  -8.7481  -1.8029   0.2360   0.4142   0.6287
     0.7772   0.8494   0.9333   0.9757   1.1222   1.2449   1.3149   1.3745
     1.4322   1.4797   1.5741   1.6139   1.7263   1.8694   2.0587   2.2052
     2.2954   2.4641   2.5883   2.7807   2.9045   3.0368   3.2565   3.3424
     3.5336   3.6697   3.7167   3.7913   3.8855   3.9221   4.0487   4.0996
     5.4625   5.5755   5.7375   5.7829   5.8902   5.9394   6.0385   6.1860
     6.2875   6.3953   6.4831   6.5909   7.9110   8.1157   8.2045   8.3082
     8.3522   8.4794   8.5355   8.6269  10.3893  12.5838  13.0161  13.3034
    13.4930  13.9244

          k = 0.1667 0.0963-0.4682 ( 18621 PWs)   bands (ev):

   -66.1624 -66.1325 -66.0578 -65.9726 -36.2582 -36.2474 -36.2069 -36.1966
   -36.0993 -36.0696 -36.0544 -36.0490 -36.0343 -36.0260 -35.9899 -35.9657
   -11.2885  -9.6706  -9.4104  -9.2845  -9.1248  -9.0175  -8.9938  -8.9244
    -8.9081  -8.8578  -8.8332  -8.7638  -1.8207   0.1964   0.4852   0.6628
     0.8290   0.9067   1.0078   1.0659   1.1235   1.2355   1.2515   1.3049
     1.3861   1.4781   1.5086   1.6625   1.7685   1.8408   2.0941   2.2619
     2.4204   2.5088   2.7381   2.8004   2.9211   3.0520   3.1590   3.3633
     3.4103   3.5509   3.6794   3.7299   3.8456   3.8903   3.9998   4.0866
     5.4787   5.5926   5.7389   5.7888   5.9044   5.9348   6.0116   6.1775
     6.2703   6.3521   6.4019   6.5644   8.0195   8.1115   8.2126   8.3545
     8.4010   8.4421   8.5331   8.6136  10.4025  13.2301  13.3211  13.4988
    13.6551  13.7152

          k = 0.1667 0.0963-0.1181 ( 18613 PWs)   bands (ev):

   -66.1624 -66.1325 -66.0578 -65.9726 -36.2582 -36.2474 -36.2069 -36.1966
   -36.0993 -36.0696 -36.0544 -36.0490 -36.0343 -36.0260 -35.9899 -35.9657
   -11.3082  -9.7843  -9.4828  -9.2793  -9.0859  -8.9956  -8.9248  -8.8828
    -8.8709  -8.8412  -8.8131  -8.7401  -1.8215   0.1574   0.3066   0.4954
     0.7505   0.8124   1.0004   1.0733   1.1100   1.1834   1.2604   1.3379
     1.3887   1.4370   1.4995   1.6086   1.6646   1.8132   2.0509   2.1976
     2.3919   2.4774   2.7464   2.8996   3.0575   3.1402   3.2820   3.3910
     3.5503   3.6244   3.7085   3.8289   3.9411   4.0871   4.1417   4.2890
     5.3670   5.6121   5.7160   5.7586   5.9032   5.9995   6.0552   6.1439
     6.2794   6.2886   6.4231   6.4625   7.9614   8.2439   8.2603   8.3736
     8.4332   8.5194   8.5931   8.7209  10.2886  12.2385  12.6694  13.1922
    13.3272  13.3953

          k = 0.1667-0.2889 0.2320 ( 18610 PWs)   bands (ev):

   -66.1624 -66.1325 -66.0578 -65.9726 -36.2582 -36.2474 -36.2069 -36.1966
   -36.0993 -36.0696 -36.0543 -36.0491 -36.0343 -36.0259 -35.9899 -35.9657
   -11.3025  -9.6994  -9.5897  -9.2228  -9.0492  -9.0205  -8.9730  -8.9129
    -8.8711  -8.8317  -8.8090  -8.7506  -1.8061   0.2133   0.4300   0.6191
     0.7612   0.8180   0.9630   0.9802   1.1079   1.1766   1.3027   1.3549
     1.4049   1.5004   1.5885   1.6665   1.7558   1.9318   2.0422   2.1742
     2.3800   2.5965   2.7075   2.8357   2.8986   3.0131   3.2240   3.3066
     3.4383   3.5700   3.6757   3.7354   3.8277   3.9334   3.9726   4.1448
     5.4374   5.6165   5.7138   5.7889   5.9674   6.0334   6.1419   6.1972
     6.2952   6.3349   6.4539   6.5411   7.8465   8.0476   8.1358   8.3018
     8.3649   8.4453   8.5964   8.6679  10.4191  13.0628  13.2428  13.4571
    13.7425  13.7733

          k = 0.1667-0.2889-0.4682 ( 18628 PWs)   bands (ev):

   -66.1624 -66.1325 -66.0578 -65.9726 -36.2582 -36.2474 -36.2069 -36.1966
   -36.0993 -36.0696 -36.0543 -36.0491 -36.0343 -36.0259 -35.9899 -35.9657
   -11.2880  -9.6130  -9.5359  -9.2477  -9.0420  -9.0322  -8.9954  -8.9616
    -8.9002  -8.8588  -8.8338  -8.7680  -1.8253   0.1749   0.4667   0.6791
     0.8388   0.8894   0.9603   1.0653   1.1254   1.1877   1.2303   1.2814
     1.3865   1.4435   1.6218   1.6852   1.8087   2.0067   2.0498   2.2741
     2.4617   2.6228   2.7239   2.8691   2.9041   3.0501   3.1766   3.2279
     3.3283   3.5054   3.5894   3.7223   3.7895   3.9054   3.9971   4.0738
     5.4097   5.6261   5.7154   5.8546   5.9275   6.0393   6.1300   6.1885
     6.2413   6.2934   6.3944   6.5417   7.9705   8.1095   8.1147   8.3440
     8.3840   8.4868   8.5399   8.6269  10.4229  13.1513  13.2306  13.5753
    13.8198  13.9289

          k = 0.1667-0.2889-0.1181 ( 18626 PWs)   bands (ev):

   -66.1624 -66.1325 -66.0578 -65.9726 -36.2582 -36.2474 -36.2069 -36.1966
   -36.0993 -36.0696 -36.0543 -36.0491 -36.0343 -36.0259 -35.9899 -35.9657
   -11.3075  -9.7378  -9.6099  -9.1792  -9.0295  -9.0061  -8.9714  -8.8952
    -8.8683  -8.8418  -8.8191  -8.7426  -1.8245   0.1374   0.3291   0.5139
     0.6987   0.7338   0.9430   1.0524   1.1287   1.1724   1.2498   1.3708
     1.4174   1.4689   1.5203   1.6119   1.8080   1.9464   1.9909   2.1603
     2.3912   2.6751   2.7084   2.8958   2.9188   3.1457   3.2724   3.3850
     3.5250   3.6086   3.6589   3.7877   3.9068   3.9920   4.1437   4.3254
     5.3660   5.6391   5.7082   5.8884   5.9652   6.0307   6.0742   6.1737
     6.2141   6.2375   6.4056   6.4334   7.9513   8.1507   8.2048   8.3567
     8.4180   8.5270   8.6295   8.7578  10.3395  12.6292  12.8326  13.0045
    13.3916  13.5326

          k =-0.5000 0.0963 0.0042 ( 18623 PWs)   bands (ev):

   -66.1624 -66.1325 -66.0578 -65.9726 -36.2582 -36.2475 -36.2070 -36.1967
   -36.0984 -36.0683 -36.0529 -36.0499 -36.0370 -36.0261 -35.9898 -35.9656
   -11.2737  -9.6036  -9.4256  -9.2579  -9.1640  -9.1271  -8.9911  -8.9486
    -8.8965  -8.8495  -8.8108  -8.7461  -1.7887   0.2910   0.4907   0.6707
     0.7916   0.8393   0.9670   1.0534   1.0913   1.1579   1.1911   1.3061
     1.3561   1.4427   1.5254   1.6165   1.8572   1.9738   2.1709   2.3236
     2.4591   2.5940   2.6358   2.8199   2.9741   3.1061   3.1690   3.2958
     3.3159   3.5354   3.6610   3.7175   3.7898   3.9044   3.9674   4.1089
     5.4694   5.6006   5.6707   5.7315   5.9282   6.0019   6.0707   6.1557
     6.3691   6.3930   6.4492   6.5186   8.0102   8.1098   8.1738   8.3385
     8.4055   8.4340   8.5260   8.6048  10.3322  13.1618  13.2672  13.4745
    13.6260  13.7905

          k =-0.5000 0.0963-0.6961 ( 18660 PWs)   bands (ev):

   -66.1624 -66.1325 -66.0578 -65.9726 -36.2582 -36.2475 -36.2070 -36.1967
   -36.0984 -36.0683 -36.0529 -36.0499 -36.0370 -36.0262 -35.9899 -35.9657
   -11.2657  -9.5764  -9.3951  -9.1768  -9.1374  -9.1113  -8.9947  -8.9656
    -8.9265  -8.8935  -8.8526  -8.8219  -1.8295   0.1802   0.4264   0.6022
     0.6904   0.7763   0.8828   0.9935   1.0744   1.1288   1.2463   1.2869
     1.4101   1.5464   1.7536   1.8332   1.8866   2.0394   2.1987   2.3163
     2.4615   2.5858   2.6699   2.9338   3.0640   3.1495   3.2113   3.2396
     3.3134   3.5208   3.6331   3.7619   3.8634   3.9281   4.0230   4.1181
     5.3741   5.4839   5.6532   5.7386   5.9053   6.0006   6.0452   6.0792
     6.3240   6.3897   6.4681   6.5212   7.9526   8.1317   8.2592   8.3874
     8.4663   8.5807   8.6216   8.7091  10.2144  12.5479  12.6715  13.0301
    13.1537  13.4789

          k =-0.5000-0.2889 0.0042 ( 18636 PWs)   bands (ev):

   -66.1624 -66.1325 -66.0578 -65.9726 -36.2582 -36.2475 -36.2070 -36.1967
   -36.0984 -36.0682 -36.0521 -36.0508 -36.0370 -36.0260 -35.9899 -35.9657
   -11.2734  -9.5847  -9.4490  -9.2615  -9.1751  -9.1310  -8.9752  -8.9483
    -8.9009  -8.8372  -8.8139  -8.7429  -1.7971   0.2091   0.5079   0.6148
     0.7526   0.8934   0.9663   1.0430   1.0642   1.1145   1.2389   1.3179
     1.3403   1.5616   1.6818   1.7979   2.0244   2.1238   2.1954   2.2194
     2.3018   2.4024   2.5317   2.6423   2.8360   2.9681   3.1164   3.2804
     3.4529   3.5694   3.6500   3.7210   3.8358   4.0079   4.0764   4.2583
     5.3355   5.5568   5.6076   5.6791   5.9102   6.0551   6.1699   6.2334
     6.3742   6.4105   6.4364   6.4799   7.9489   8.0670   8.1131   8.3616
     8.4018   8.4801   8.5316   8.5914  10.3131  13.0742  13.2832  13.6174
    13.7632  13.8867

          k =-0.5000-0.2889-0.6961 ( 18708 PWs)   bands (ev):

   -66.1624 -66.1325 -66.0579 -65.9726 -36.2582 -36.2476 -36.2070 -36.1967
   -36.0984 -36.0683 -36.0522 -36.0508 -36.0371 -36.0261 -35.9899 -35.9657
   -11.2654  -9.5659  -9.3908  -9.2146  -9.1385  -9.1211  -8.9892  -8.9693
    -8.9101  -8.8853  -8.8539  -8.8116  -1.8400   0.0829   0.3492   0.5660
     0.7329   0.8006   0.9098   1.0080   1.1281   1.1954   1.2769   1.4168
     1.4885   1.5964   1.7100   1.9626   2.0361   2.0883   2.1198   2.2096
     2.3154   2.5078   2.5700   2.6499   2.9140   3.0341   3.1984   3.2824
     3.3874   3.5056   3.6281   3.8815   3.9498   4.0162   4.1709   4.2112
     5.2812   5.4655   5.5970   5.6997   5.9101   6.0247   6.1154   6.1389
     6.2807   6.3545   6.4602   6.5247   7.9706   8.1061   8.1993   8.3304
     8.4434   8.5766   8.6395   8.7690  10.2044  12.3377  12.4751  12.8555
    13.1472  13.9666

          k =-0.1667 0.0963-0.2320 ( 18618 PWs)   bands (ev):

   -66.1624 -66.1325 -66.0578 -65.9726 -36.2582 -36.2474 -36.2069 -36.1966
   -36.0993 -36.0696 -36.0544 -36.0490 -36.0343 -36.0259 -35.9899 -35.9657
   -11.3031  -9.7493  -9.4652  -9.2807  -9.1418  -8.9972  -8.9311  -8.9093
    -8.8682  -8.8290  -8.8078  -8.7501  -1.8043   0.2528   0.4207   0.6488
     0.7578   0.8253   0.9250   0.9897   1.0769   1.2548   1.2955   1.3565
     1.4314   1.4854   1.5465   1.6679   1.8113   1.9080   2.0464   2.1693
     2.3003   2.4344   2.5445   2.7494   2.9596   3.0718   3.2045   3.3582
     3.5004   3.6785   3.7351   3.7857   3.8754   3.9530   4.0344   4.1262
     5.4766   5.5231   5.6884   5.8338   5.8782   5.9736   6.0825   6.1636
     6.2807   6.3689   6.4975   6.5885   7.9145   8.1235   8.2058   8.2725
     8.3585   8.4897   8.5508   8.6261  10.3594  12.6197  13.0290  13.3105
    13.5219  13.8980

          k =-0.1667 0.0963 0.4682 ( 18621 PWs)   bands (ev):

   -66.1624 -66.1325 -66.0578 -65.9726 -36.2582 -36.2474 -36.2069 -36.1966
   -36.0993 -36.0696 -36.0544 -36.0490 -36.0343 -36.0260 -35.9899 -35.9657
   -11.2886  -9.6686  -9.4205  -9.2678  -9.1343  -9.0184  -8.9938  -8.9370
    -8.8987  -8.8551  -8.8274  -8.7674  -1.8226   0.2284   0.5211   0.6682
     0.7398   0.8485   0.9846   1.0580   1.1430   1.2173   1.3061   1.3382
     1.3832   1.4335   1.5387   1.7154   1.8060   1.9173   2.0252   2.2521
     2.3332   2.5749   2.7116   2.7632   2.9283   3.0517   3.1655   3.3399
     3.3988   3.5252   3.7152   3.7773   3.8479   3.8955   3.9931   4.0964
     5.4927   5.5627   5.6743   5.8336   5.8796   5.9553   6.0429   6.1882
     6.2708   6.3203   6.4173   6.5630   8.0411   8.1242   8.1745   8.3553
     8.3792   8.4565   8.5620   8.6012  10.3781  13.2016  13.3472  13.5581
    13.6219  13.8134

          k =-0.1667 0.0963 0.1181 ( 18613 PWs)   bands (ev):

   -66.1624 -66.1325 -66.0578 -65.9726 -36.2582 -36.2474 -36.2069 -36.1966
   -36.0993 -36.0696 -36.0544 -36.0490 -36.0343 -36.0259 -35.9899 -35.9657
   -11.3082  -9.7816  -9.4917  -9.2688  -9.0893  -8.9985  -8.9231  -8.8934
    -8.8588  -8.8377  -8.8191  -8.7386  -1.8238   0.1677   0.3155   0.5530
     0.6723   0.8469   0.9833   1.0289   1.0742   1.2095   1.2422   1.2898
     1.3939   1.4465   1.5112   1.6349   1.7118   1.9048   2.0736   2.1750
     2.3312   2.4753   2.7088   2.8739   3.0266   3.1025   3.3416   3.4002
     3.5410   3.6798   3.7344   3.8139   3.9416   4.0960   4.1432   4.2809
     5.3757   5.5779   5.6412   5.8141   5.9244   6.0139   6.0656   6.1329
     6.2439   6.3012   6.4369   6.4628   7.9648   8.2145   8.2824   8.3826
     8.4226   8.5191   8.5988   8.7220  10.2742  12.2691  12.6726  13.2008
    13.3136  13.3779

          k = 0.5000 0.0963-0.0042 ( 18623 PWs)   bands (ev):

   -66.1624 -66.1325 -66.0578 -65.9726 -36.2582 -36.2475 -36.2070 -36.1967
   -36.0984 -36.0683 -36.0529 -36.0499 -36.0370 -36.0261 -35.9898 -35.9656
   -11.2737  -9.5979  -9.4461  -9.2194  -9.1715  -9.1444  -8.9833  -8.9512
    -8.9111  -8.8346  -8.8144  -8.7469  -1.7878   0.2708   0.5163   0.7032
     0.7513   0.8327   0.9572   1.0397   1.0831   1.1910   1.2306   1.2876
     1.3070   1.4768   1.5377   1.6266   1.8192   1.9846   2.1768   2.3761
     2.4641   2.5580   2.6011   2.7805   3.0186   3.1313   3.1823   3.2496
     3.3883   3.5047   3.6314   3.6956   3.7872   3.9116   3.9750   4.1179
     5.4729   5.5780   5.6684   5.7672   5.9486   5.9887   6.0390   6.1653
     6.3761   6.4086   6.4340   6.5159   8.0337   8.0909   8.1604   8.3376
     8.4051   8.4535   8.5213   8.6040  10.3242  13.1750  13.2698  13.4733
    13.6511  13.7494

     the Fermi energy is     6.4459 ev

!    total energy              =   -1205.41021163 Ry
     Harris-Foulkes estimate   =   -1205.41021163 Ry
     estimated scf accuracy    <          9.4E-11 Ry

     The total energy is the sum of the following terms:

     one-electron contribution =    -663.10218821 Ry
     hartree contribution      =     385.81583684 Ry
     xc contribution           =    -246.58207757 Ry
     ewald contribution        =    -681.52715899 Ry
     smearing contrib. (-TS)   =      -0.01462370 Ry

     convergence has been achieved in  10 iterations

     Forces acting on atoms (Ry/au):

     atom    1 type  1   force =    -0.00004816    0.00001451    0.00005170
     atom    2 type  1   force =     0.00004692   -0.00005199   -0.00002778
     atom    3 type  1   force =    -0.00003805    0.00005752   -0.00007170
     atom    4 type  1   force =    -0.00004377   -0.00005451   -0.00008292
     atom    5 type  2   force =     0.00001453   -0.00002388   -0.00000157
     atom    6 type  2   force =     0.00002755   -0.00001496    0.00004675
     atom    7 type  2   force =    -0.00002728    0.00008787   -0.00001191
     atom    8 type  2   force =     0.00004965    0.00000635    0.00004469
     atom    9 type  2   force =    -0.00002344    0.00000020   -0.00001960
     atom   10 type  2   force =     0.00001827    0.00001511    0.00005318
     atom   11 type  2   force =     0.00002321   -0.00003006    0.00001164
     atom   12 type  2   force =    -0.00000279    0.00002485   -0.00007947
     atom   13 type  2   force =    -0.00003636   -0.00002676    0.00001472
     atom   14 type  2   force =     0.00001244    0.00000589    0.00003424
     atom   15 type  2   force =     0.00003522   -0.00000879    0.00002431
     atom   16 type  2   force =    -0.00001292    0.00003086    0.00002136
     atom   17 type  3   force =     0.00000497   -0.00003221   -0.00000763

     Total force =     0.000266     Total SCF correction =     0.000029
     SCF correction compared to forces is large: reduce conv_thr to get better values


     entering subroutine stress ...

          total   stress  (Ry/bohr**3)                   (kbar)     P=   16.49
   0.00011111  -0.00001479  -0.00000191         16.34     -2.18     -0.28
  -0.00001479   0.00009276   0.00000076         -2.18     13.65      0.11
  -0.00000191   0.00000076   0.00013233         -0.28      0.11     19.47


     bfgs converged in  98 scf cycles and  97 bfgs steps
     (criteria: energy <  1.0E-05, force <  1.0E-04)

     End of BFGS Geometry Optimization

     Final energy   =   -1205.4102116294 Ry
Begin final coordinates

ATOMIC_POSITIONS (crystal)
Ru      -0.004005298   0.331148109   0.008187082
Ru       0.008748288   0.667227782   0.009860876
Ru       0.512468529   0.837984735   0.007991525
Ru       0.497088022   0.152987956   0.006227125
Cl       0.742655834   0.171088325   0.774410575
Cl       0.262846619   0.826741064   0.245647731
Cl       0.238481511   0.160221976   0.248700665
Cl       0.760717149   0.827188476   0.772484913
Cl       0.266322665   0.675550050   0.785312667
Cl       0.737032299   0.320261090   0.234524306
Cl       0.756077752   0.676673484   0.239943636
Cl       0.250193511   0.314883116   0.783046892
Cl       0.759098021  -0.000959095   0.253934911
Cl       0.264090605  -0.006524423   0.758847774
Cl       0.223611613   0.496911147   0.245298400
Cl       0.785213411   0.499169458   0.777632312
XXMU       0.079359469   0.059446750   0.207948609
End final coordinates



     Writing output data file a-RuCl3.mu1.rel.1x1x1.140010360.save
 
     init_run     :      6.75s CPU      7.45s WALL (       1 calls)
     electrons    :  15685.44s CPU  16881.64s WALL (      98 calls)
     update_pot   :    340.20s CPU    366.38s WALL (      97 calls)
     forces       :    443.00s CPU    453.54s WALL (      98 calls)
     stress       :   1349.61s CPU   1379.94s WALL (      98 calls)

     Called by init_run:
     wfcinit      :      2.49s CPU      2.78s WALL (       1 calls)
     potinit      :      1.53s CPU      1.55s WALL (       1 calls)

     Called by electrons:
     c_bands      :  12504.70s CPU  13291.92s WALL (    1561 calls)
     sum_band     :   2475.30s CPU   2718.57s WALL (    1561 calls)
     v_of_rho     :    121.15s CPU    143.08s WALL (    1631 calls)
     newd         :    592.59s CPU    697.83s WALL (    1631 calls)
     mix_rho      :     16.58s CPU     21.44s WALL (    1561 calls)

     Called by c_bands:
     init_us_2    :    140.66s CPU    149.36s WALL (   46466 calls)
     cegterg      :  11832.04s CPU  12584.75s WALL (   21854 calls)

     Called by sum_band:
     sum_band:bec :      6.48s CPU      8.13s WALL (   21854 calls)
     addusdens    :    808.77s CPU    951.13s WALL (    1561 calls)

     Called by *egterg:
     h_psi        :   6833.68s CPU   7284.20s WALL (   75432 calls)
     s_psi        :    909.40s CPU    924.89s WALL (   75432 calls)
     g_psi        :     28.79s CPU     29.02s WALL (   53564 calls)
     cdiaghg      :   1803.17s CPU   1809.13s WALL (   73668 calls)

     Called by h_psi:
     h_psi:pot    :   6740.34s CPU   7191.09s WALL (   75432 calls)
     h_psi:calbec :   1018.85s CPU   1017.52s WALL (   75432 calls)
     vloc_psi     :   4791.50s CPU   5223.87s WALL (   75432 calls)
     add_vuspsi   :    929.38s CPU    949.15s WALL (   75432 calls)

     General routines
     calbec       :   1553.15s CPU   1550.98s WALL (  104146 calls)
     fft          :     99.70s CPU    119.38s WALL (   28363 calls)
     ffts         :      2.35s CPU      2.87s WALL (    3192 calls)
     fftw         :   4922.75s CPU   5451.35s WALL (11275050 calls)
     interpolate  :     13.21s CPU     19.57s WALL (    3192 calls)
 
     Parallel routines
     fft_scatter  :   1626.54s CPU   1749.53s WALL (11306605 calls)
 
     PWSCF        :     4h57m CPU        5h22m WALL

 
   This run was terminated on:  19:42:24  21Feb2018            

=------------------------------------------------------------------------------=
   JOB DONE.
=------------------------------------------------------------------------------=
