
     Program PWSCF v.6.0 (svn rev. 13079) starts on 21Feb2018 at 14:19:43 

     This program is part of the open-source Quantum ESPRESSO suite
     for quantum simulation of materials; please cite
         "P. Giannozzi et al., J. Phys.:Condens. Matter 21 395502 (2009);
          URL http://www.quantum-espresso.org", 
     in publications or presentations arising from this work. More details at
     http://www.quantum-espresso.org/quote

     Parallel version (MPI), running on    16 processors
     R & G space division:  proc/nbgrp/npool/nimage =      16
     Waiting for input...
     Reading input from standard input

     Current dimensions of program PWSCF are:
     Max number of different atomic species (ntypx) = 10
     Max number of k-points (npk) =  40000
     Max angular momentum in pseudopotentials (lmaxx) =  3

     Subspace diagonalization in iterative solution of the eigenvalue problem:
     a serial algorithm will be used

 
     Parallelization info
     --------------------
     sticks:   dense  smooth     PW     G-vecs:    dense   smooth      PW
     Min         657     263     74                36802     9311    1405
     Max         658     264     75                36804     9314    1408
     Sum       10525    4215   1195               588847   148993   22511
 


     bravais-lattice index     =          -12
     lattice parameter (alat)  =      11.2934  a.u.
     unit-cell volume          =    2373.1521 (a.u.)^3
     number of atoms/cell      =           17
     number of atomic types    =            3
     number of electrons       =       149.00
     number of Kohn-Sham states=           90
     kinetic-energy cutoff     =      60.0000  Ry
     charge density cutoff     =     600.0000  Ry
     convergence threshold     =      1.0E-08
     mixing beta               =       0.7000
     number of iterations used =            8  plain     mixing
     Exchange-correlation      =  SLA  PW   PBX  PBC ( 1  4  3  4 0 0)
     nstep                     =          500


     celldm(1)=  11.293381  celldm(2)=   1.730531  celldm(3)=   1.006158
     celldm(4)=   0.000000  celldm(5)=  -0.323422  celldm(6)=   0.000000

     crystal axes: (cart. coord. in units of alat)
               a(1) = (   1.000000   0.000000   0.000000 )  
               a(2) = (   0.000000   1.730531   0.000000 )  
               a(3) = (  -0.325414   0.000000   0.952082 )  

     reciprocal axes: (cart. coord. in units 2 pi/alat)
               b(1) = (  1.000000  0.000000  0.341792 )  
               b(2) = (  0.000000  0.577857  0.000000 )  
               b(3) = (  0.000000  0.000000  1.050330 )  


     PseudoPot. # 1 for Ru read from file:
     /home/phys-musr/mert2601/pseudo/Ru.pbe-spn-rrkjus_psl.1.0.0.UPF
     MD5 check sum: f33c46f5b0d54ba5aa393bc1c575518e
     Pseudo is Ultrasoft + core correction, Zval = 16.0
     Generated using "atomic" code by A. Dal Corso  v.5.0.2 svn rev. 9656
     Using radial grid of 1233 points,  6 beta functions with: 
                l(1) =   0
                l(2) =   0
                l(3) =   1
                l(4) =   1
                l(5) =   2
                l(6) =   2
     Q(r) pseudized with 0 coefficients 


     PseudoPot. # 2 for Cl read from file:
     /home/phys-musr/mert2601/pseudo/Cl.pbe-n-rrkjus_psl.1.0.0.UPF
     MD5 check sum: 6c44f4e39484f98bbcc1703ef0502336
     Pseudo is Ultrasoft + core correction, Zval =  7.0
     Generated using "atomic" code by A. Dal Corso  v.5.0.2 svn rev. 9656
     Using radial grid of 1157 points,  6 beta functions with: 
                l(1) =   0
                l(2) =   0
                l(3) =   1
                l(4) =   1
                l(5) =   2
                l(6) =   2
     Q(r) pseudized with 0 coefficients 


     PseudoPot. # 3 for H  read from file:
     /home/phys-musr/mert2601/pseudo/H.pbe-tm-dc.UPF
     MD5 check sum: c7e992f3be35a5ba2152290168345934
     Pseudo is Norm-conserving, Zval =  1.0
     Generated by new atomic code, or converted to UPF format
     Using radial grid of  929 points,  0 beta functions with: 

     atomic species   valence    mass     pseudopotential
        Ru            16.00   101.07000     Ru( 1.00)
        Cl             7.00    35.45000     Cl( 1.00)
        XXMU             1.00     0.11343     H ( 1.00)

     No symmetry found



   Cartesian axes

     site n.     atom                  positions (alat units)
         1           Ru  tau(   1) = (   0.0000000   0.5786896   0.0000000  )
         2           Ru  tau(   2) = (   0.0000000   1.1518415   0.0000000  )
         3           Ru  tau(   3) = (   0.5000000   1.4439552   0.0000000  )
         4           Ru  tau(   4) = (   0.5000000   0.2865760   0.0000000  )
         5           Cl  tau(   5) = (   0.5020681   0.3002471   0.7294850  )
         6           Cl  tau(   6) = (   0.1725183   1.4302840   0.2225967  )
         7           Cl  tau(   7) = (   0.1725183   0.3002471   0.2225967  )
         8           Cl  tau(   8) = (   0.5020681   1.4302840   0.7294850  )
         9           Cl  tau(   9) = (   0.0020681   1.1655127   0.7294850  )
        10           Cl  tau(  10) = (   0.6725183   0.5650184   0.2225967  )
        11           Cl  tau(  11) = (   0.6725183   1.1655127   0.2225967  )
        12           Cl  tau(  12) = (   0.0020681   0.5650184   0.7294850  )
        13           Cl  tau(  13) = (   0.6524587   0.0000000   0.2274523  )
        14           Cl  tau(  14) = (   0.0221277   0.0000000   0.7246293  )
        15           Cl  tau(  15) = (   0.1524587   0.8652656   0.2274523  )
        16           Cl  tau(  16) = (   0.5221277   0.8652656   0.7246293  )
        17           XXMU  tau(  17) = (   0.0067459   0.0346106   0.0095208  )

     number of k points=    14  gaussian smearing, width (Ry)=  0.0100
                       cart. coord. in units 2pi/alat
        k(    1) = (   0.1666667   0.0963095   0.2320203), wk =   0.1481481
        k(    2) = (   0.1666667   0.0963095  -0.4681998), wk =   0.1481481
        k(    3) = (   0.1666667   0.0963095  -0.1180897), wk =   0.1481481
        k(    4) = (   0.1666667  -0.2889286   0.2320203), wk =   0.1481481
        k(    5) = (   0.1666667  -0.2889286  -0.4681998), wk =   0.1481481
        k(    6) = (   0.1666667  -0.2889286  -0.1180897), wk =   0.1481481
        k(    7) = (  -0.5000000   0.0963095   0.0041592), wk =   0.1481481
        k(    8) = (  -0.5000000   0.0963095  -0.6960609), wk =   0.1481481
        k(    9) = (  -0.5000000  -0.2889286   0.0041592), wk =   0.1481481
        k(   10) = (  -0.5000000  -0.2889286  -0.6960609), wk =   0.0740741
        k(   11) = (  -0.1666667   0.0963095  -0.2320203), wk =   0.1481481
        k(   12) = (  -0.1666667   0.0963095   0.4681998), wk =   0.1481481
        k(   13) = (  -0.1666667   0.0963095   0.1180897), wk =   0.1481481
        k(   14) = (   0.5000000   0.0963095  -0.0041592), wk =   0.1481481

     Dense  grid:   588847 G-vectors     FFT dimensions: (  90, 160,  90)

     Smooth grid:   148993 G-vectors     FFT dimensions: (  60, 100,  60)

     Estimated max dynamical RAM per process >      67.82Mb

     Estimated total allocated dynamical RAM >    1085.10Mb

     Initial potential from superposition of free atoms

     starting charge  148.09734, renormalised to  149.00000
     Starting wfc are   89 randomized atomic wfcs +    1 random wfc

     total cpu time spent up to now is        9.5 secs

     Self-consistent Calculation

     iteration #  1     ecut=    60.00 Ry     beta=0.70
     Davidson diagonalization with overlap
     ethr =  1.00E-02,  avg # of iterations =  4.2

     total cpu time spent up to now is       22.6 secs

     total energy              =   -1198.24831930 Ry
     Harris-Foulkes estimate   =   -1206.40358296 Ry
     estimated scf accuracy    <       9.89614900 Ry

     iteration #  2     ecut=    60.00 Ry     beta=0.70
     Davidson diagonalization with overlap
     ethr =  6.64E-03,  avg # of iterations =  5.1

     total cpu time spent up to now is       42.2 secs

     total energy              =   -1171.86460333 Ry
     Harris-Foulkes estimate   =   -1239.87191332 Ry
     estimated scf accuracy    <     431.34903455 Ry

     iteration #  3     ecut=    60.00 Ry     beta=0.70
     Davidson diagonalization with overlap
     ethr =  6.64E-03,  avg # of iterations =  6.3

     total cpu time spent up to now is       61.6 secs

     total energy              =   -1202.98125268 Ry
     Harris-Foulkes estimate   =   -1207.34106373 Ry
     estimated scf accuracy    <      20.54768393 Ry

     iteration #  4     ecut=    60.00 Ry     beta=0.70
     Davidson diagonalization with overlap
     ethr =  6.64E-03,  avg # of iterations =  2.9

     total cpu time spent up to now is       71.7 secs

     total energy              =   -1203.52606824 Ry
     Harris-Foulkes estimate   =   -1207.31049330 Ry
     estimated scf accuracy    <      25.77464096 Ry

     iteration #  5     ecut=    60.00 Ry     beta=0.70
     Davidson diagonalization with overlap
     ethr =  6.64E-03,  avg # of iterations =  1.9

     total cpu time spent up to now is       80.9 secs

     total energy              =   -1204.19677420 Ry
     Harris-Foulkes estimate   =   -1206.22135976 Ry
     estimated scf accuracy    <      18.28846682 Ry

     iteration #  6     ecut=    60.00 Ry     beta=0.70
     Davidson diagonalization with overlap
     ethr =  6.64E-03,  avg # of iterations =  1.0

     total cpu time spent up to now is       89.7 secs

     total energy              =   -1205.09613432 Ry
     Harris-Foulkes estimate   =   -1205.50187948 Ry
     estimated scf accuracy    <       2.23547568 Ry

     iteration #  7     ecut=    60.00 Ry     beta=0.70
     Davidson diagonalization with overlap
     ethr =  1.50E-03,  avg # of iterations =  1.6

     total cpu time spent up to now is       98.9 secs

     total energy              =   -1205.35005115 Ry
     Harris-Foulkes estimate   =   -1205.41136550 Ry
     estimated scf accuracy    <       0.91830158 Ry

     iteration #  8     ecut=    60.00 Ry     beta=0.70
     Davidson diagonalization with overlap
     ethr =  6.16E-04,  avg # of iterations =  1.9

     total cpu time spent up to now is      108.1 secs

     total energy              =   -1205.32572155 Ry
     Harris-Foulkes estimate   =   -1205.36974869 Ry
     estimated scf accuracy    <       0.59812935 Ry

     iteration #  9     ecut=    60.00 Ry     beta=0.70
     Davidson diagonalization with overlap
     ethr =  4.01E-04,  avg # of iterations =  1.0

     total cpu time spent up to now is      116.9 secs

     total energy              =   -1205.30484627 Ry
     Harris-Foulkes estimate   =   -1205.34403348 Ry
     estimated scf accuracy    <       0.31600048 Ry

     iteration # 10     ecut=    60.00 Ry     beta=0.70
     Davidson diagonalization with overlap
     ethr =  2.12E-04,  avg # of iterations =  4.7

     total cpu time spent up to now is      127.7 secs

     total energy              =   -1205.31456042 Ry
     Harris-Foulkes estimate   =   -1205.33562146 Ry
     estimated scf accuracy    <       0.36233452 Ry

     iteration # 11     ecut=    60.00 Ry     beta=0.70
     Davidson diagonalization with overlap
     ethr =  2.12E-04,  avg # of iterations =  1.4

     total cpu time spent up to now is      136.6 secs

     total energy              =   -1205.32376750 Ry
     Harris-Foulkes estimate   =   -1205.32878265 Ry
     estimated scf accuracy    <       0.04123837 Ry

     iteration # 12     ecut=    60.00 Ry     beta=0.70
     Davidson diagonalization with overlap
     ethr =  2.77E-05,  avg # of iterations =  6.9

     total cpu time spent up to now is      150.0 secs

     total energy              =   -1205.32444927 Ry
     Harris-Foulkes estimate   =   -1205.32951989 Ry
     estimated scf accuracy    <       0.04998536 Ry

     iteration # 13     ecut=    60.00 Ry     beta=0.70
     Davidson diagonalization with overlap
     ethr =  2.77E-05,  avg # of iterations =  1.0

     total cpu time spent up to now is      158.7 secs

     total energy              =   -1205.32620165 Ry
     Harris-Foulkes estimate   =   -1205.32689399 Ry
     estimated scf accuracy    <       0.01362214 Ry

     iteration # 14     ecut=    60.00 Ry     beta=0.70
     Davidson diagonalization with overlap
     ethr =  9.14E-06,  avg # of iterations =  2.7

     total cpu time spent up to now is      168.3 secs

     total energy              =   -1205.32651253 Ry
     Harris-Foulkes estimate   =   -1205.32662621 Ry
     estimated scf accuracy    <       0.00178973 Ry

     iteration # 15     ecut=    60.00 Ry     beta=0.70
     Davidson diagonalization with overlap
     ethr =  1.20E-06,  avg # of iterations =  5.6

     total cpu time spent up to now is      179.9 secs

     total energy              =   -1205.32655552 Ry
     Harris-Foulkes estimate   =   -1205.32659503 Ry
     estimated scf accuracy    <       0.00060228 Ry

     iteration # 16     ecut=    60.00 Ry     beta=0.70
     Davidson diagonalization with overlap
     ethr =  4.04E-07,  avg # of iterations =  1.0

     total cpu time spent up to now is      188.6 secs

     total energy              =   -1205.32657350 Ry
     Harris-Foulkes estimate   =   -1205.32657799 Ry
     estimated scf accuracy    <       0.00006818 Ry

     iteration # 17     ecut=    60.00 Ry     beta=0.70
     Davidson diagonalization with overlap
     ethr =  4.58E-08,  avg # of iterations =  1.0

     total cpu time spent up to now is      197.3 secs

     total energy              =   -1205.32657448 Ry
     Harris-Foulkes estimate   =   -1205.32657618 Ry
     estimated scf accuracy    <       0.00001846 Ry

     iteration # 18     ecut=    60.00 Ry     beta=0.70
     Davidson diagonalization with overlap
     ethr =  1.24E-08,  avg # of iterations =  1.0

     total cpu time spent up to now is      206.0 secs

     total energy              =   -1205.32657521 Ry
     Harris-Foulkes estimate   =   -1205.32657573 Ry
     estimated scf accuracy    <       0.00000372 Ry

     iteration # 19     ecut=    60.00 Ry     beta=0.70
     Davidson diagonalization with overlap
     ethr =  2.50E-09,  avg # of iterations =  1.9

     total cpu time spent up to now is      215.2 secs

     total energy              =   -1205.32657544 Ry
     Harris-Foulkes estimate   =   -1205.32657551 Ry
     estimated scf accuracy    <       0.00000028 Ry

     iteration # 20     ecut=    60.00 Ry     beta=0.70
     Davidson diagonalization with overlap
     ethr =  1.86E-10,  avg # of iterations =  2.9

     total cpu time spent up to now is      226.8 secs

     total energy              =   -1205.32657547 Ry
     Harris-Foulkes estimate   =   -1205.32657552 Ry
     estimated scf accuracy    <       0.00000028 Ry

     iteration # 21     ecut=    60.00 Ry     beta=0.70
     Davidson diagonalization with overlap
     ethr =  1.86E-10,  avg # of iterations =  1.5

     total cpu time spent up to now is      236.0 secs

     total energy              =   -1205.32657548 Ry
     Harris-Foulkes estimate   =   -1205.32657551 Ry
     estimated scf accuracy    <       0.00000020 Ry

     iteration # 22     ecut=    60.00 Ry     beta=0.70
     Davidson diagonalization with overlap
     ethr =  1.35E-10,  avg # of iterations =  1.0

     total cpu time spent up to now is      244.7 secs

     End of self-consistent calculation

          k = 0.1667 0.0963 0.2320 ( 18618 PWs)   bands (ev):

   -66.2112 -66.1975 -66.1871 -66.1797 -36.2448 -36.2381 -36.2349 -36.2233
   -36.2211 -36.2185 -36.2081 -36.2019 -36.1982 -36.1683 -36.1618 -36.1530
    -9.9954  -9.6512  -9.3712  -9.2448  -9.2153  -9.0986  -9.0442  -8.9613
    -8.9417  -8.9132  -8.8644  -8.8432   0.3457   0.5428   0.5807   0.7030
     0.7840   0.8784   0.9103   0.9765   1.2045   1.2463   1.3139   1.3460
     1.3949   1.4255   1.5497   1.6026   1.8428   1.9176   2.1457   2.2124
     2.3104   2.4647   2.5018   2.8394   2.9693   3.0374   3.2311   3.3761
     3.4907   3.5785   3.6214   3.7529   3.8445   3.8702   3.9892   4.0603
     5.4758   5.4971   5.5704   5.6851   5.8246   5.8546   5.9196   6.0608
     6.2281   6.2784   6.3627   6.4325   7.6014   8.0399   8.1285   8.1573
     8.2142   8.3141   8.4050   8.4622   8.5577  12.7035  13.1695  13.3309
    13.4278  14.0145

          k = 0.1667 0.0963-0.4682 ( 18621 PWs)   bands (ev):

   -66.2112 -66.1975 -66.1871 -66.1797 -36.2448 -36.2380 -36.2349 -36.2234
   -36.2211 -36.2185 -36.2081 -36.2019 -36.1982 -36.1683 -36.1618 -36.1531
    -9.8872  -9.5628  -9.3923  -9.2916  -9.1817  -9.1165  -9.0843  -9.0338
    -8.9831  -8.9214  -8.8951  -8.8410   0.4077   0.4631   0.5772   0.7627
     0.8205   0.9446   1.0203   1.0548   1.0968   1.2346   1.2600   1.3132
     1.3483   1.4094   1.4763   1.7420   1.7723   1.8885   2.1047   2.3522
     2.4361   2.6082   2.6670   2.8998   2.9621   3.0690   3.2089   3.2732
     3.3673   3.5383   3.6097   3.6626   3.7884   3.8202   3.9167   4.0394
     5.4817   5.5199   5.5859   5.7365   5.8316   5.8711   5.8922   6.0560
     6.1370   6.2307   6.2979   6.4003   7.6309   8.1107   8.2069   8.2362
     8.2622   8.3040   8.3745   8.4184   8.4833  13.3976  13.4674  13.5619
    13.7780  13.8522

          k = 0.1667 0.0963-0.1181 ( 18613 PWs)   bands (ev):

   -66.2112 -66.1975 -66.1871 -66.1797 -36.2448 -36.2380 -36.2349 -36.2233
   -36.2211 -36.2185 -36.2081 -36.2019 -36.1982 -36.1683 -36.1618 -36.1530
   -10.0358  -9.6807  -9.3338  -9.2583  -9.1510  -9.1349  -9.0228  -8.9736
    -8.9252  -8.8886  -8.8802  -8.8351   0.2306   0.4168   0.4549   0.7171
     0.7964   0.9212   0.9681   1.0517   1.0992   1.1326   1.2404   1.2984
     1.3263   1.3777   1.4800   1.6264   1.7522   1.8527   2.1161   2.2227
     2.4173   2.5494   2.7330   2.9803   3.0299   3.1320   3.2566   3.4375
     3.5122   3.6178   3.7012   3.7786   3.8495   4.0227   4.0976   4.2139
     5.3926   5.5215   5.5812   5.7012   5.8266   5.8842   5.9798   6.0147
     6.1752   6.1994   6.2692   6.3076   7.5100   8.1313   8.1857   8.2886
     8.3183   8.4029   8.4250   8.4696   8.5861  12.3364  12.8930  13.1971
    13.2962  13.4623

          k = 0.1667-0.2889 0.2320 ( 18610 PWs)   bands (ev):

   -66.2112 -66.1975 -66.1871 -66.1797 -36.2448 -36.2380 -36.2348 -36.2231
   -36.2219 -36.2180 -36.2083 -36.2027 -36.1971 -36.1687 -36.1613 -36.1532
    -9.9451  -9.7620  -9.3253  -9.2314  -9.1736  -9.1017  -9.0520  -8.9720
    -8.9497  -8.9267  -8.8549  -8.8491   0.3931   0.5188   0.5557   0.6491
     0.7327   0.7920   0.9728   1.0347   1.1636   1.2045   1.2249   1.3497
     1.4376   1.4748   1.5217   1.6325   1.9170   1.9542   2.1178   2.2620
     2.5668   2.6254   2.7212   2.7908   2.8484   2.9020   3.1524   3.3248
     3.4318   3.4999   3.6527   3.6775   3.7518   3.8803   3.8931   4.0595
     5.5540   5.5728   5.6009   5.6472   5.7633   6.0149   6.0211   6.1027
     6.1915   6.2585   6.3147   6.3377   7.6052   7.9772   8.0464   8.1949
     8.2294   8.3006   8.3207   8.5349   8.5701  13.2422  13.2757  13.6996
    13.7483  13.8766

          k = 0.1667-0.2889-0.4682 ( 18628 PWs)   bands (ev):

   -66.2112 -66.1975 -66.1871 -66.1797 -36.2448 -36.2379 -36.2348 -36.2231
   -36.2219 -36.2180 -36.2084 -36.2027 -36.1971 -36.1687 -36.1614 -36.1532
    -9.8403  -9.6617  -9.3873  -9.2576  -9.1839  -9.0850  -9.0626  -9.0376
    -8.9729  -8.9662  -8.8940  -8.8405   0.3760   0.4460   0.5180   0.7729
     0.8932   0.9493   1.0167   1.0503   1.0913   1.1165   1.1887   1.2504
     1.3151   1.4382   1.6417   1.7056   1.9504   1.9938   2.1641   2.3532
     2.6020   2.6379   2.7605   2.8507   2.9154   2.9775   3.1554   3.2150
     3.3899   3.4598   3.4926   3.6098   3.7344   3.8364   3.8979   3.9872
     5.5297   5.5503   5.6335   5.7273   5.7990   5.9897   6.0007   6.0531
     6.1250   6.2317   6.2391   6.3493   7.6490   8.0814   8.0839   8.2493
     8.2764   8.3176   8.3519   8.4534   8.4700  13.3205  13.3812  13.7610
    13.8165  13.9668

          k = 0.1667-0.2889-0.1181 ( 18626 PWs)   bands (ev):

   -66.2112 -66.1975 -66.1871 -66.1797 -36.2448 -36.2380 -36.2348 -36.2231
   -36.2219 -36.2180 -36.2084 -36.2027 -36.1971 -36.1687 -36.1614 -36.1532
    -9.9812  -9.7982  -9.2940  -9.2128  -9.1432  -9.1077  -9.0302  -8.9861
    -8.9369  -8.9151  -8.8805  -8.8334   0.3197   0.4428   0.4709   0.5049
     0.6158   0.8759   0.9461   1.0946   1.1288   1.1492   1.2399   1.2939
     1.4215   1.4543   1.5568   1.6006   1.8772   1.9150   2.0531   2.2621
     2.5745   2.7386   2.7585   2.8239   2.8532   3.1420   3.2427   3.4270
     3.4419   3.5455   3.6409   3.6989   3.8888   3.9178   4.0674   4.2484
     5.5321   5.5499   5.6534   5.7591   5.7846   5.9640   6.0149   6.0279
     6.0568   6.1978   6.2263   6.2673   7.5266   8.1077   8.1622   8.2460
     8.2517   8.3783   8.4184   8.5704   8.5749  12.8075  12.8293  13.3091
    13.3520  13.6607

          k =-0.5000 0.0963 0.0042 ( 18623 PWs)   bands (ev):

   -66.2112 -66.1975 -66.1870 -66.1798 -36.2441 -36.2396 -36.2361 -36.2221
   -36.2191 -36.2173 -36.2093 -36.2038 -36.1921 -36.1749 -36.1625 -36.1513
    -9.7348  -9.6256  -9.4078  -9.3591  -9.2177  -9.1635  -9.0442  -9.0323
    -8.9572  -8.9271  -8.8919  -8.8403   0.3493   0.4922   0.6821   0.7783
     0.8116   0.8703   0.9322   1.0505   1.1231   1.1505   1.1712   1.2663
     1.3174   1.4340   1.5277   1.7782   1.8853   2.0162   2.2055   2.3059
     2.4810   2.5065   2.7795   2.9002   3.0215   3.1089   3.1830   3.2737
     3.3623   3.4479   3.5487   3.6200   3.7214   3.8798   3.8946   4.0394
     5.4183   5.5032   5.5702   5.6831   5.7712   5.8949   5.9246   6.0970
     6.2754   6.2988   6.3362   6.3947   7.6023   8.1056   8.1547   8.2430
     8.2673   8.2905   8.3428   8.4372   8.5015  13.3745  13.4401  13.5598
    13.7152  13.8226

          k =-0.5000 0.0963-0.6961 ( 18660 PWs)   bands (ev):

   -66.2112 -66.1975 -66.1870 -66.1798 -36.2441 -36.2396 -36.2361 -36.2222
   -36.2191 -36.2173 -36.2093 -36.2037 -36.1921 -36.1749 -36.1625 -36.1513
    -9.6525  -9.6105  -9.3806  -9.3325  -9.1782  -9.1570  -9.0640  -9.0457
    -8.9835  -8.9749  -8.9565  -8.8896   0.1994   0.3555   0.6245   0.6352
     0.7868   0.8083   0.9359   0.9597   1.0884   1.1104   1.2294   1.2427
     1.3625   1.6862   1.7900   1.7958   1.8922   2.0100   2.3012   2.3801
     2.4410   2.5656   2.9575   3.0405   3.0541   3.1222   3.1541   3.1890
     3.4364   3.4738   3.6051   3.6382   3.8294   3.8510   3.8935   4.0388
     5.3865   5.4962   5.5077   5.6475   5.7210   5.9020   5.9456   5.9825
     6.2113   6.2836   6.3873   6.4077   7.4342   8.0390   8.0784   8.3528
     8.3574   8.4140   8.4526   8.5530   8.5582  12.7061  12.8472  13.0163
    13.1052  13.5140

          k =-0.5000-0.2889 0.0042 ( 18636 PWs)   bands (ev):

   -66.2112 -66.1975 -66.1870 -66.1798 -36.2441 -36.2394 -36.2360 -36.2220
   -36.2204 -36.2173 -36.2081 -36.2037 -36.1924 -36.1754 -36.1617 -36.1517
    -9.7186  -9.6078  -9.4521  -9.3846  -9.2110  -9.1462  -9.0495  -9.0318
    -8.9588  -8.9202  -8.8739  -8.8457   0.1856   0.3777   0.7071   0.7983
     0.8596   0.9067   0.9572   1.0278   1.1431   1.1793   1.2363   1.2791
     1.3447   1.5859   1.6252   1.9616   2.0744   2.1398   2.1862   2.2006
     2.2987   2.3266   2.5137   2.5265   2.9232   3.0112   3.2749   3.3635
     3.4755   3.5232   3.5677   3.5905   3.7313   3.9576   4.0437   4.1775
     5.3546   5.4096   5.4203   5.6241   5.8184   5.9518   5.9621   6.2317
     6.2624   6.2659   6.3493   6.3562   7.6315   8.0339   8.0434   8.2365
     8.2735   8.3630   8.4138   8.4221   8.4390  13.2770  13.3866  13.6663
    13.7374  13.9481

          k =-0.5000-0.2889-0.6961 ( 18708 PWs)   bands (ev):

   -66.2112 -66.1975 -66.1870 -66.1798 -36.2442 -36.2394 -36.2361 -36.2220
   -36.2204 -36.2174 -36.2082 -36.2037 -36.1924 -36.1755 -36.1617 -36.1517
    -9.6362  -9.5928  -9.4032  -9.3639  -9.1991  -9.1548  -9.0728  -9.0404
    -8.9749  -8.9590  -8.9374  -8.8896   0.0221   0.2160   0.6233   0.6550
     0.8385   0.9238   0.9607   1.0113   1.2070   1.2241   1.3047   1.3253
     1.3880   1.6201   1.6936   2.0315   2.0787   2.1495   2.1702   2.1960
     2.3901   2.4215   2.5141   2.5484   3.1249   3.1660   3.1977   3.2783
     3.4440   3.4997   3.6088   3.7829   3.8468   3.9585   4.0990   4.1306
     5.3559   5.3938   5.4111   5.5986   5.8360   5.9052   5.9367   6.1004
     6.1475   6.1976   6.3843   6.4312   7.4596   8.0627   8.0969   8.2527
     8.2591   8.3908   8.4277   8.6139   8.6213  12.4709  12.7778  12.8104
    12.8873  14.1564

          k =-0.1667 0.0963-0.2320 ( 18618 PWs)   bands (ev):

   -66.2112 -66.1975 -66.1871 -66.1797 -36.2448 -36.2380 -36.2349 -36.2233
   -36.2210 -36.2186 -36.2084 -36.2014 -36.1985 -36.1683 -36.1618 -36.1530
    -9.9948  -9.6554  -9.3456  -9.2763  -9.2134  -9.0921  -9.0412  -8.9622
    -8.9410  -8.9153  -8.8638  -8.8433   0.3461   0.5447   0.5798   0.7057
     0.7832   0.8722   0.9119   0.9765   1.1967   1.2522   1.3206   1.3331
     1.3956   1.4283   1.5514   1.6039   1.8442   1.9260   2.1490   2.2090
     2.3072   2.4665   2.4994   2.8315   2.9671   3.0432   3.2253   3.3865
     3.4840   3.5791   3.6219   3.7529   3.8464   3.8696   3.9893   4.0615
     5.4711   5.4993   5.5703   5.6853   5.8266   5.8563   5.9196   6.0601
     6.2280   6.2775   6.3631   6.4322   7.6011   8.0408   8.1304   8.1558
     8.2145   8.3134   8.4040   8.4622   8.5578  12.7042  13.1703  13.3315
    13.4287  14.0126

          k =-0.1667 0.0963 0.4682 ( 18621 PWs)   bands (ev):

   -66.2112 -66.1975 -66.1871 -66.1797 -36.2448 -36.2380 -36.2349 -36.2234
   -36.2209 -36.2185 -36.2084 -36.2014 -36.1985 -36.1683 -36.1618 -36.1531
    -9.8869  -9.5666  -9.3821  -9.2952  -9.1919  -9.1087  -9.0854  -9.0315
    -8.9854  -8.9203  -8.8956  -8.8410   0.4054   0.4670   0.5813   0.7651
     0.8129   0.9393   1.0131   1.0558   1.1014   1.2350   1.2630   1.3176
     1.3436   1.4083   1.4775   1.7442   1.7703   1.8984   2.1053   2.3504
     2.4353   2.6052   2.6673   2.8937   2.9612   3.0720   3.1957   3.2835
     3.3706   3.5274   3.6217   3.6658   3.7859   3.8202   3.9165   4.0398
     5.4805   5.5211   5.5825   5.7371   5.8337   5.8714   5.8925   6.0571
     6.1362   6.2299   6.2982   6.4002   7.6313   8.1116   8.2071   8.2365
     8.2609   8.3033   8.3738   8.4182   8.4840  13.4012  13.4650  13.5596
    13.7801  13.8565

          k =-0.1667 0.0963 0.1181 ( 18613 PWs)   bands (ev):

   -66.2112 -66.1975 -66.1871 -66.1797 -36.2448 -36.2380 -36.2349 -36.2233
   -36.2209 -36.2185 -36.2084 -36.2014 -36.1985 -36.1683 -36.1618 -36.1530
   -10.0356  -9.6822  -9.3128  -9.2826  -9.1506  -9.1316  -9.0204  -8.9747
    -8.9251  -8.8890  -8.8802  -8.8350   0.2305   0.4173   0.4548   0.7201
     0.7991   0.9172   0.9718   1.0403   1.0966   1.1371   1.2423   1.2970
     1.3216   1.3806   1.4792   1.6296   1.7491   1.8628   2.1171   2.2221
     2.4217   2.5477   2.7285   2.9776   3.0222   3.1291   3.2600   3.4446
     3.5130   3.6152   3.7013   3.7830   3.8467   4.0234   4.0988   4.2132
     5.3910   5.5219   5.5786   5.7031   5.8263   5.8887   5.9790   6.0130
     6.1741   6.1998   6.2693   6.3080   7.5098   8.1314   8.1860   8.2865
     8.3198   8.4042   8.4238   8.4692   8.5864  12.3365  12.8925  13.1983
    13.2978  13.4600

          k = 0.5000 0.0963-0.0042 ( 18623 PWs)   bands (ev):

   -66.2112 -66.1975 -66.1870 -66.1798 -36.2441 -36.2396 -36.2361 -36.2221
   -36.2191 -36.2173 -36.2093 -36.2038 -36.1921 -36.1749 -36.1625 -36.1513
    -9.7373  -9.6180  -9.4305  -9.3385  -9.2195  -9.1637  -9.0444  -9.0337
    -8.9597  -8.9216  -8.8944  -8.8402   0.3490   0.4928   0.6798   0.7765
     0.8151   0.8790   0.9256   1.0467   1.1228   1.1506   1.1754   1.2629
     1.3171   1.4321   1.5299   1.7858   1.8798   2.0162   2.2036   2.3075
     2.4817   2.5070   2.7772   2.8941   3.0276   3.1052   3.1816   3.2800
     3.3758   3.4387   3.5476   3.6119   3.7248   3.8791   3.8957   4.0395
     5.4187   5.5021   5.5703   5.6869   5.7685   5.8943   5.9239   6.0979
     6.2763   6.2989   6.3353   6.3948   7.6029   8.1058   8.1547   8.2447
     8.2650   8.2914   8.3431   8.4361   8.5011  13.3776  13.4420  13.5554
    13.7134  13.8236

     the Fermi energy is     6.3241 ev

!    total energy              =   -1205.32657549 Ry
     Harris-Foulkes estimate   =   -1205.32657550 Ry
     estimated scf accuracy    <          9.4E-09 Ry

     The total energy is the sum of the following terms:

     one-electron contribution =    -657.79690467 Ry
     hartree contribution      =     383.04566206 Ry
     xc contribution           =    -246.31605435 Ry
     ewald contribution        =    -684.24294457 Ry
     smearing contrib. (-TS)   =      -0.01633396 Ry

     convergence has been achieved in  22 iterations

     Forces acting on atoms (Ry/au):

     atom    1 type  1   force =     0.00026948    0.00736953   -0.00025630
     atom    2 type  1   force =     0.00012312    0.00141511   -0.00023159
     atom    3 type  1   force =     0.00043273   -0.00553717   -0.00027021
     atom    4 type  1   force =     0.00095566    0.00513044   -0.00023609
     atom    5 type  2   force =     0.00758584   -0.01096571    0.02245949
     atom    6 type  2   force =    -0.00189310    0.00510513   -0.01100659
     atom    7 type  2   force =    -0.01025969   -0.01645847   -0.02616878
     atom    8 type  2   force =     0.00113717    0.00281228    0.00995800
     atom    9 type  2   force =    -0.00189731    0.00352909    0.00460772
     atom   10 type  2   force =     0.00257463   -0.00354404   -0.00483053
     atom   11 type  2   force =     0.00199779    0.00353076   -0.00473420
     atom   12 type  2   force =    -0.00234630   -0.00355298    0.00464616
     atom   13 type  2   force =     0.00993493    0.00174008   -0.01295492
     atom   14 type  2   force =    -0.01042890    0.00189067    0.01475472
     atom   15 type  2   force =    -0.00590299    0.00012003   -0.00750229
     atom   16 type  2   force =     0.00603471   -0.00014844    0.00788781
     atom   17 type  3   force =     0.00168223    0.00756368    0.00387760

     Total force =     0.056035     Total SCF correction =     0.000206


     entering subroutine stress ...

          total   stress  (Ry/bohr**3)                   (kbar)     P=    4.08
   0.00005296  -0.00000086  -0.00000476          7.79     -0.13     -0.70
  -0.00000086   0.00004423  -0.00000294         -0.13      6.51     -0.43
  -0.00000476  -0.00000294  -0.00001407         -0.70     -0.43     -2.07


     BFGS Geometry Optimization

     number of scf cycles    =   1
     number of bfgs steps    =   0

     energy   new            =   -1205.3265754871 Ry

     new trust radius        =       0.0325721909 bohr
     new conv_thr            =       0.0000000100 Ry


ATOMIC_POSITIONS (crystal)
Ru       0.000016105   0.334777083  -0.000023837
Ru       0.000003893   0.665672408  -0.000021539
Ru       0.500030139   0.834116675  -0.000025131
Ru       0.500077476   0.165862513  -0.000021957
Cl       0.752751438   0.172938909   0.768288823
Cl       0.248099259   0.826761218   0.232776343
Cl       0.246899539   0.172657857   0.231366197
Cl       0.751802070   0.826643898   0.767126134
Cl       0.251371450   0.673680576   0.766628537
Cl       0.748681782   0.326318659   0.233350741
Cl       0.748633620   0.673680661   0.233359700
Cl       0.251332856   0.326318202   0.766632112
Cl       0.730687635   0.000089036   0.237695140
Cl       0.269323095   0.000096742   0.762472248
Cl       0.229450251   0.500006141   0.238202257
Cl       0.770573081   0.499992404   0.761833599
XXMU       0.010266312   0.020387017   0.010360632



     Writing output data file a-RuCl3.mu1.rel.1x1x1.010020010.save
     NEW-OLD atomic charge density approx. for the potential

     total cpu time spent up to now is      268.3 secs

     Self-consistent Calculation

     iteration #  1     ecut=    60.00 Ry     beta=0.70
     Davidson diagonalization with overlap
     ethr =  1.00E-06,  avg # of iterations =  4.1

     total cpu time spent up to now is      287.6 secs

     total energy              =   -1205.32894598 Ry
     Harris-Foulkes estimate   =   -1205.32952780 Ry
     estimated scf accuracy    <       0.00071388 Ry

     iteration #  2     ecut=    60.00 Ry     beta=0.70
     Davidson diagonalization with overlap
     ethr =  4.79E-07,  avg # of iterations =  7.6

     total cpu time spent up to now is      305.1 secs

     total energy              =   -1205.31902802 Ry
     Harris-Foulkes estimate   =   -1205.34124014 Ry
     estimated scf accuracy    <       0.47958904 Ry

     iteration #  3     ecut=    60.00 Ry     beta=0.70
     Davidson diagonalization with overlap
     ethr =  4.79E-07,  avg # of iterations =  7.4

     total cpu time spent up to now is      322.3 secs

     total energy              =   -1205.32927553 Ry
     Harris-Foulkes estimate   =   -1205.32963121 Ry
     estimated scf accuracy    <       0.00323229 Ry

     iteration #  4     ecut=    60.00 Ry     beta=0.70
     Davidson diagonalization with overlap
     ethr =  4.79E-07,  avg # of iterations =  2.0

     total cpu time spent up to now is      331.6 secs

     total energy              =   -1205.32935892 Ry
     Harris-Foulkes estimate   =   -1205.32961309 Ry
     estimated scf accuracy    <       0.00357915 Ry

     iteration #  5     ecut=    60.00 Ry     beta=0.70
     Davidson diagonalization with overlap
     ethr =  4.79E-07,  avg # of iterations =  2.0

     total cpu time spent up to now is      340.9 secs

     total energy              =   -1205.32943095 Ry
     Harris-Foulkes estimate   =   -1205.32954510 Ry
     estimated scf accuracy    <       0.00099061 Ry

     iteration #  6     ecut=    60.00 Ry     beta=0.70
     Davidson diagonalization with overlap
     ethr =  4.79E-07,  avg # of iterations =  1.0

     total cpu time spent up to now is      349.6 secs

     total energy              =   -1205.32948687 Ry
     Harris-Foulkes estimate   =   -1205.32951623 Ry
     estimated scf accuracy    <       0.00023126 Ry

     iteration #  7     ecut=    60.00 Ry     beta=0.70
     Davidson diagonalization with overlap
     ethr =  1.55E-07,  avg # of iterations =  1.0

     total cpu time spent up to now is      358.2 secs

     total energy              =   -1205.32950093 Ry
     Harris-Foulkes estimate   =   -1205.32950249 Ry
     estimated scf accuracy    <       0.00000346 Ry

     iteration #  8     ecut=    60.00 Ry     beta=0.70
     Davidson diagonalization with overlap
     ethr =  2.32E-09,  avg # of iterations =  2.4

     total cpu time spent up to now is      369.2 secs

     total energy              =   -1205.32950149 Ry
     Harris-Foulkes estimate   =   -1205.32950247 Ry
     estimated scf accuracy    <       0.00000316 Ry

     iteration #  9     ecut=    60.00 Ry     beta=0.70
     Davidson diagonalization with overlap
     ethr =  2.12E-09,  avg # of iterations =  2.0

     total cpu time spent up to now is      378.6 secs

     total energy              =   -1205.32950195 Ry
     Harris-Foulkes estimate   =   -1205.32950203 Ry
     estimated scf accuracy    <       0.00000030 Ry

     iteration # 10     ecut=    60.00 Ry     beta=0.70
     Davidson diagonalization with overlap
     ethr =  2.03E-10,  avg # of iterations =  2.0

     total cpu time spent up to now is      388.6 secs

     total energy              =   -1205.32950199 Ry
     Harris-Foulkes estimate   =   -1205.32950200 Ry
     estimated scf accuracy    <       0.00000003 Ry

     iteration # 11     ecut=    60.00 Ry     beta=0.70
     Davidson diagonalization with overlap
     ethr =  2.22E-11,  avg # of iterations =  2.0

     total cpu time spent up to now is      399.3 secs

     End of self-consistent calculation

          k = 0.1667 0.0963 0.2320 ( 18618 PWs)   bands (ev):

   -66.2105 -66.1910 -66.1862 -66.1722 -36.2437 -36.2340 -36.2290 -36.2204
   -36.2187 -36.2144 -36.2040 -36.2026 -36.1947 -36.1705 -36.1582 -36.1504
   -10.0084  -9.6600  -9.3771  -9.2481  -9.2114  -9.1013  -9.0433  -8.9705
    -8.9519  -8.9231  -8.8750  -8.8552   0.3243   0.5344   0.5767   0.6850
     0.7765   0.8670   0.8953   0.9629   1.1896   1.2365   1.2978   1.3352
     1.3847   1.4125   1.5383   1.5874   1.8420   1.9042   2.1413   2.2099
     2.3025   2.4605   2.4924   2.8395   2.9688   3.0320   3.2175   3.3819
     3.4877   3.5809   3.6219   3.7534   3.8366   3.8689   3.9831   4.0541
     5.4750   5.4997   5.5733   5.6890   5.8269   5.8559   5.9196   6.0655
     6.2332   6.2836   6.3649   6.4346   7.6477   8.0578   8.1447   8.1737
     8.2301   8.3343   8.4226   8.4793   8.5705  12.7088  13.1691  13.3302
    13.4437  14.0281

          k = 0.1667 0.0963-0.4682 ( 18621 PWs)   bands (ev):

   -66.2105 -66.1910 -66.1862 -66.1722 -36.2437 -36.2339 -36.2290 -36.2204
   -36.2188 -36.2143 -36.2040 -36.2026 -36.1947 -36.1705 -36.1582 -36.1504
    -9.9048  -9.5738  -9.3903  -9.2906  -9.1771  -9.1256  -9.0870  -9.0397
    -8.9907  -8.9320  -8.9056  -8.8541   0.3866   0.4511   0.5657   0.7499
     0.8092   0.9325   1.0098   1.0468   1.0843   1.2221   1.2426   1.2983
     1.3350   1.4020   1.4632   1.7341   1.7641   1.8790   2.1006   2.3484
     2.4252   2.6015   2.6661   2.9010   2.9721   3.0621   3.2043   3.2587
     3.3733   3.5350   3.6112   3.6584   3.7832   3.8134   3.9142   4.0337
     5.4783   5.5206   5.5854   5.7431   5.8335   5.8731   5.8930   6.0609
     6.1425   6.2361   6.3006   6.4029   7.6789   8.1273   8.2220   8.2541
     8.2803   8.3216   8.3928   8.4326   8.4996  13.3991  13.4750  13.5737
    13.7877  13.8526

          k = 0.1667 0.0963-0.1181 ( 18613 PWs)   bands (ev):

   -66.2105 -66.1910 -66.1862 -66.1722 -36.2437 -36.2339 -36.2290 -36.2204
   -36.2188 -36.2143 -36.2040 -36.2026 -36.1947 -36.1705 -36.1582 -36.1504
   -10.0477  -9.6891  -9.3403  -9.2621  -9.1556  -9.1287  -9.0240  -8.9786
    -8.9356  -8.9001  -8.8936  -8.8455   0.2112   0.4135   0.4497   0.6982
     0.7826   0.9104   0.9609   1.0370   1.0836   1.1225   1.2295   1.2795
     1.3136   1.3692   1.4679   1.6177   1.7437   1.8435   2.1118   2.2166
     2.4097   2.5379   2.7315   2.9749   3.0307   3.1272   3.2460   3.4417
     3.5138   3.6170   3.6923   3.7756   3.8517   4.0185   4.0909   4.2094
     5.3913   5.5226   5.5847   5.7078   5.8279   5.8858   5.9786   6.0184
     6.1813   6.2051   6.2725   6.3102   7.5590   8.1511   8.2002   8.3074
     8.3364   8.4196   8.4397   8.4844   8.5983  12.3424  12.8995  13.1940
    13.3061  13.4650

          k = 0.1667-0.2889 0.2320 ( 18610 PWs)   bands (ev):

   -66.2105 -66.1910 -66.1862 -66.1722 -36.2437 -36.2338 -36.2289 -36.2203
   -36.2194 -36.2137 -36.2057 -36.2017 -36.1940 -36.1708 -36.1579 -36.1506
    -9.9585  -9.7709  -9.3315  -9.2301  -9.1688  -9.1060  -9.0547  -8.9801
    -8.9578  -8.9402  -8.8675  -8.8587   0.3711   0.5061   0.5470   0.6416
     0.7229   0.7803   0.9614   1.0144   1.1482   1.1938   1.2097   1.3397
     1.4271   1.4727   1.5168   1.6183   1.9099   1.9447   2.1038   2.2549
     2.5551   2.6212   2.7170   2.7889   2.8430   2.8964   3.1519   3.3284
     3.4273   3.5011   3.6436   3.6742   3.7493   3.8721   3.9002   4.0557
     5.5586   5.5693   5.6072   5.6541   5.7577   6.0162   6.0221   6.1079
     6.1977   6.2621   6.3184   6.3407   7.6505   7.9977   8.0602   8.2171
     8.2457   8.3213   8.3316   8.5508   8.5833  13.2494  13.2882  13.7052
    13.7548  13.8776

          k = 0.1667-0.2889-0.4682 ( 18628 PWs)   bands (ev):

   -66.2105 -66.1910 -66.1862 -66.1722 -36.2437 -36.2338 -36.2289 -36.2203
   -36.2194 -36.2137 -36.2057 -36.2017 -36.1940 -36.1708 -36.1579 -36.1506
    -9.8588  -9.6722  -9.3843  -9.2575  -9.1777  -9.0869  -9.0686  -9.0451
    -8.9844  -8.9770  -8.9043  -8.8535   0.3589   0.4363   0.4987   0.7569
     0.8788   0.9416   1.0039   1.0437   1.0790   1.1007   1.1764   1.2457
     1.3046   1.4265   1.6327   1.6892   1.9448   1.9889   2.1483   2.3467
     2.5942   2.6369   2.7507   2.8509   2.9092   2.9755   3.1615   3.2171
     3.3874   3.4565   3.4871   3.6028   3.7411   3.8347   3.8931   3.9743
     5.5327   5.5472   5.6354   5.7326   5.7958   5.9914   6.0029   6.0590
     6.1305   6.2355   6.2433   6.3524   7.6967   8.0978   8.1030   8.2671
     8.2932   8.3332   8.3688   8.4681   8.4866  13.3321  13.3906  13.7750
    13.8294  13.9653

          k = 0.1667-0.2889-0.1181 ( 18626 PWs)   bands (ev):

   -66.2105 -66.1910 -66.1862 -66.1722 -36.2437 -36.2338 -36.2289 -36.2203
   -36.2194 -36.2137 -36.2057 -36.2017 -36.1940 -36.1709 -36.1579 -36.1506
    -9.9935  -9.8064  -9.3014  -9.2149  -9.1343  -9.1117  -9.0355  -8.9898
    -8.9505  -8.9244  -8.8942  -8.8437   0.2991   0.4295   0.4633   0.4994
     0.6053   0.8683   0.9343   1.0858   1.1118   1.1327   1.2196   1.2832
     1.4127   1.4459   1.5503   1.5865   1.8685   1.9049   2.0503   2.2533
     2.5656   2.7250   2.7541   2.8234   2.8481   3.1334   3.2365   3.4347
     3.4431   3.5504   3.6279   3.6946   3.8892   3.9063   4.0725   4.2444
     5.5366   5.5449   5.6565   5.7676   5.7858   5.9692   6.0137   6.0278
     6.0629   6.2007   6.2307   6.2712   7.5755   8.1269   8.1753   8.2616
     8.2716   8.3983   8.4324   8.5788   8.5932  12.8114  12.8386  13.3171
    13.3607  13.6615

          k =-0.5000 0.0963 0.0042 ( 18623 PWs)   bands (ev):

   -66.2105 -66.1910 -66.1861 -66.1723 -36.2433 -36.2360 -36.2289 -36.2197
   -36.2173 -36.2091 -36.2082 -36.2047 -36.1894 -36.1756 -36.1588 -36.1496
    -9.7414  -9.6401  -9.4114  -9.3679  -9.2136  -9.1656  -9.0487  -9.0390
    -8.9654  -8.9375  -8.9006  -8.8516   0.3277   0.4765   0.6705   0.7672
     0.8008   0.8628   0.9261   1.0395   1.1107   1.1332   1.1589   1.2562
     1.3050   1.4248   1.5152   1.7641   1.8779   2.0103   2.2024   2.2973
     2.4742   2.4953   2.7816   2.8986   3.0196   3.1001   3.1753   3.2612
     3.3616   3.4528   3.5464   3.6214   3.7244   3.8758   3.8885   4.0355
     5.4076   5.5078   5.5747   5.6912   5.7758   5.8960   5.9262   6.1064
     6.2782   6.3011   6.3384   6.3985   7.6469   8.1246   8.1727   8.2625
     8.2843   8.3052   8.3591   8.4523   8.5159  13.3752  13.4527  13.5613
    13.7115  13.8388

          k =-0.5000 0.0963-0.6961 ( 18660 PWs)   bands (ev):

   -66.2105 -66.1910 -66.1861 -66.1723 -36.2433 -36.2360 -36.2290 -36.2197
   -36.2173 -36.2091 -36.2082 -36.2047 -36.1894 -36.1756 -36.1589 -36.1497
    -9.6672  -9.6172  -9.3873  -9.3386  -9.1816  -9.1495  -9.0696  -9.0498
    -8.9963  -8.9814  -8.9648  -8.9035   0.1800   0.3443   0.6130   0.6234
     0.7762   0.8010   0.9257   0.9468   1.0776   1.1015   1.2136   1.2248
     1.3479   1.6735   1.7781   1.7855   1.8812   2.0042   2.2985   2.3746
     2.4382   2.5566   2.9517   3.0410   3.0523   3.1174   3.1433   3.1812
     3.4415   3.4718   3.6085   3.6383   3.8230   3.8512   3.8852   4.0338
     5.3753   5.4991   5.5155   5.6549   5.7222   5.9048   5.9466   5.9921
     6.2122   6.2878   6.3899   6.4112   7.4852   8.0566   8.0895   8.3668
     8.3792   8.4348   8.4648   8.5676   8.5699  12.7136  12.8529  13.0295
    13.1208  13.5116

          k =-0.5000-0.2889 0.0042 ( 18636 PWs)   bands (ev):

   -66.2105 -66.1910 -66.1861 -66.1723 -36.2433 -36.2357 -36.2289 -36.2195
   -36.2187 -36.2091 -36.2071 -36.2045 -36.1897 -36.1759 -36.1582 -36.1500
    -9.7244  -9.6231  -9.4612  -9.3886  -9.2075  -9.1442  -9.0558  -9.0398
    -8.9688  -8.9285  -8.8828  -8.8568   0.1645   0.3637   0.6939   0.7876
     0.8471   0.8960   0.9509   1.0172   1.1310   1.1636   1.2298   1.2718
     1.3288   1.5786   1.6141   1.9514   2.0671   2.1235   2.1771   2.1907
     2.2921   2.3248   2.5048   2.5188   2.9220   3.0135   3.2619   3.3468
     3.4800   3.5256   3.5706   3.5886   3.7419   3.9543   4.0420   4.1695
     5.3480   5.4117   5.4207   5.6405   5.8154   5.9523   5.9638   6.2322
     6.2645   6.2739   6.3556   6.3612   7.6767   8.0493   8.0653   8.2557
     8.2893   8.3814   8.4271   8.4358   8.4534  13.2839  13.3921  13.6779
    13.7476  13.9568

          k =-0.5000-0.2889-0.6961 ( 18708 PWs)   bands (ev):

   -66.2105 -66.1910 -66.1862 -66.1723 -36.2434 -36.2357 -36.2290 -36.2196
   -36.2188 -36.2092 -36.2071 -36.2046 -36.1897 -36.1760 -36.1583 -36.1501
    -9.6491  -9.6013  -9.4125  -9.3683  -9.2039  -9.1450  -9.0758  -9.0462
    -8.9879  -8.9678  -8.9439  -8.9035   0.0038   0.2052   0.6160   0.6386
     0.8238   0.9130   0.9510   1.0009   1.1969   1.2151   1.2910   1.3064
     1.3756   1.6112   1.6858   2.0215   2.0634   2.1425   2.1640   2.1878
     2.3881   2.4189   2.5002   2.5408   3.1258   3.1565   3.1975   3.2650
     3.4584   3.5013   3.6082   3.7750   3.8541   3.9539   4.0952   4.1220
     5.3453   5.3984   5.4130   5.6120   5.8342   5.9054   5.9369   6.1035
     6.1588   6.1995   6.3870   6.4355   7.5111   8.0801   8.1089   8.2636
     8.2821   8.4126   8.4397   8.6301   8.6311  12.4794  12.7959  12.8180
    12.8970  14.1330

          k =-0.1667 0.0963-0.2320 ( 18618 PWs)   bands (ev):

   -66.2105 -66.1910 -66.1862 -66.1722 -36.2437 -36.2340 -36.2290 -36.2204
   -36.2187 -36.2145 -36.2045 -36.2019 -36.1948 -36.1705 -36.1581 -36.1504
   -10.0078  -9.6645  -9.3499  -9.2817  -9.2088  -9.0950  -9.0401  -8.9713
    -8.9510  -8.9258  -8.8740  -8.8556   0.3247   0.5370   0.5751   0.6878
     0.7751   0.8612   0.8969   0.9634   1.1822   1.2420   1.3047   1.3212
     1.3854   1.4157   1.5398   1.5887   1.8435   1.9131   2.1454   2.2063
     2.2989   2.4628   2.4894   2.8307   2.9662   3.0389   3.2114   3.3932
     3.4799   3.5817   3.6225   3.7530   3.8391   3.8684   3.9831   4.0554
     5.4690   5.5024   5.5734   5.6892   5.8291   5.8581   5.9195   6.0648
     6.2329   6.2826   6.3654   6.4342   7.6477   8.0587   8.1464   8.1725
     8.2300   8.3334   8.4218   8.4789   8.5708  12.7097  13.1703  13.3307
    13.4446  14.0255

          k =-0.1667 0.0963 0.4682 ( 18621 PWs)   bands (ev):

   -66.2105 -66.1910 -66.1862 -66.1722 -36.2437 -36.2339 -36.2290 -36.2204
   -36.2187 -36.2144 -36.2045 -36.2019 -36.1948 -36.1705 -36.1582 -36.1504
    -9.9044  -9.5777  -9.3784  -9.2962  -9.1889  -9.1162  -9.0875  -9.0376
    -8.9931  -8.9309  -8.9061  -8.8542   0.3843   0.4553   0.5702   0.7513
     0.8009   0.9276   1.0029   1.0473   1.0888   1.2219   1.2467   1.3033
     1.3301   1.4000   1.4647   1.7364   1.7624   1.8898   2.1010   2.3471
     2.4241   2.5988   2.6656   2.8940   2.9715   3.0654   3.1876   3.2724
     3.3763   3.5242   3.6222   3.6634   3.7808   3.8135   3.9139   4.0340
     5.4763   5.5225   5.5815   5.7438   5.8358   5.8735   5.8934   6.0622
     6.1416   6.2353   6.3010   6.4027   7.6793   8.1283   8.2222   8.2539
     8.2791   8.3209   8.3920   8.4325   8.5004  13.4036  13.4710  13.5711
    13.7909  13.8571

          k =-0.1667 0.0963 0.1181 ( 18613 PWs)   bands (ev):

   -66.2105 -66.1910 -66.1862 -66.1722 -36.2437 -36.2339 -36.2290 -36.2204
   -36.2187 -36.2144 -36.2045 -36.2019 -36.1948 -36.1705 -36.1582 -36.1504
   -10.0475  -9.6908  -9.3171  -9.2890  -9.1534  -9.1267  -9.0216  -8.9796
    -8.9356  -8.9005  -8.8937  -8.8454   0.2111   0.4144   0.4490   0.7009
     0.7858   0.9068   0.9642   1.0249   1.0815   1.1270   1.2318   1.2782
     1.3076   1.3723   1.4672   1.6213   1.7398   1.8547   2.1130   2.2162
     2.4143   2.5358   2.7263   2.9717   3.0225   3.1234   3.2507   3.4511
     3.5124   3.6146   3.6921   3.7798   3.8497   4.0188   4.0924   4.2087
     5.3892   5.5234   5.5815   5.7098   5.8275   5.8913   5.9776   6.0164
     6.1797   6.2059   6.2724   6.3107   7.5589   8.1513   8.2005   8.3048
     8.3381   8.4211   8.4386   8.4840   8.5984  12.3424  12.8991  13.1953
    13.3076  13.4625

          k = 0.5000 0.0963-0.0042 ( 18623 PWs)   bands (ev):

   -66.2105 -66.1910 -66.1861 -66.1723 -36.2433 -36.2360 -36.2289 -36.2197
   -36.2173 -36.2091 -36.2082 -36.2047 -36.1894 -36.1756 -36.1588 -36.1496
    -9.7444  -9.6321  -9.4360  -9.3458  -9.2146  -9.1665  -9.0467  -9.0422
    -8.9687  -8.9314  -8.9030  -8.8515   0.3276   0.4769   0.6683   0.7655
     0.8045   0.8709   0.9194   1.0352   1.1117   1.1328   1.1627   1.2528
     1.3048   1.4231   1.5175   1.7718   1.8721   2.0104   2.2001   2.2996
     2.4745   2.4963   2.7787   2.8919   3.0267   3.0964   3.1742   3.2667
     3.3756   3.4448   3.5451   3.6126   3.7275   3.8751   3.8899   4.0355
     5.4081   5.5069   5.5744   5.6957   5.7728   5.8952   5.9254   6.1073
     6.2794   6.3010   6.3374   6.3985   7.6475   8.1250   8.1723   8.2648
     8.2817   8.3061   8.3591   8.4513   8.5155  13.3791  13.4546  13.5559
    13.7094  13.8405

     the Fermi energy is     6.3277 ev

!    total energy              =   -1205.32950200 Ry
     Harris-Foulkes estimate   =   -1205.32950200 Ry
     estimated scf accuracy    <          2.4E-09 Ry

     The total energy is the sum of the following terms:

     one-electron contribution =    -660.36126111 Ry
     hartree contribution      =     384.32495529 Ry
     xc contribution           =    -246.34415897 Ry
     ewald contribution        =    -682.93263145 Ry
     smearing contrib. (-TS)   =      -0.01640575 Ry

     convergence has been achieved in  11 iterations

     Forces acting on atoms (Ry/au):

     atom    1 type  1   force =     0.00020001    0.00331165   -0.00026766
     atom    2 type  1   force =     0.00010937    0.00175074   -0.00019481
     atom    3 type  1   force =     0.00020334   -0.00334169   -0.00016919
     atom    4 type  1   force =     0.00039954    0.00248080   -0.00017417
     atom    5 type  2   force =     0.00750605   -0.01021275    0.01936175
     atom    6 type  2   force =    -0.00180396    0.00495218   -0.00854037
     atom    7 type  2   force =    -0.01009206   -0.01582010   -0.02336268
     atom    8 type  2   force =     0.00113657    0.00286600    0.00745932
     atom    9 type  2   force =    -0.00157151    0.00250880    0.00312983
     atom   10 type  2   force =     0.00220908   -0.00228305   -0.00319292
     atom   11 type  2   force =     0.00172387    0.00246853   -0.00326113
     atom   12 type  2   force =    -0.00187947   -0.00237604    0.00303254
     atom   13 type  2   force =     0.00903197    0.00138569   -0.01126416
     atom   14 type  2   force =    -0.00943245    0.00157599    0.01286474
     atom   15 type  2   force =    -0.00440315    0.00088883   -0.00537211
     atom   16 type  2   force =     0.00460202    0.00068275    0.00579420
     atom   17 type  3   force =     0.00206078    0.00916165    0.00415682

     Total force =     0.048837     Total SCF correction =     0.000139


     entering subroutine stress ...

          total   stress  (Ry/bohr**3)                   (kbar)     P=    6.41
   0.00006538  -0.00000111  -0.00000467          9.62     -0.16     -0.69
  -0.00000111   0.00005665  -0.00000320         -0.16      8.33     -0.47
  -0.00000467  -0.00000320   0.00000862         -0.69     -0.47      1.27


     number of scf cycles    =   2
     number of bfgs steps    =   1

     energy   old            =   -1205.3265754871 Ry
     energy   new            =   -1205.3295019984 Ry

     CASE: energy  _new < energy  _old


     WARNING: bfgs curvature condition failed, Theta= 0.926
     new trust radius        =       0.0358294100 bohr
     new conv_thr            =       0.0000000100 Ry


ATOMIC_POSITIONS (crystal)
Ru       0.000028606   0.335014147  -0.000053029
Ru       0.000008383   0.665775074  -0.000043535
Ru       0.500048428   0.833894809  -0.000045380
Ru       0.500121467   0.166036538  -0.000042104
Cl       0.754245519   0.172315259   0.770465611
Cl       0.247590922   0.827061689   0.231797912
Cl       0.244992462   0.171696612   0.228755066
Cl       0.752200817   0.826816492   0.767986435
Cl       0.251321845   0.673841408   0.766996638
Cl       0.748795531   0.326169262   0.232973062
Cl       0.748693663   0.673839444   0.232977266
Cl       0.251246095   0.326163957   0.766991788
Cl       0.731234346   0.000175958   0.236430592
Cl       0.268791303   0.000194794   0.763915801
Cl       0.228762959   0.500052798   0.237577188
Cl       0.771294975   0.500026045   0.762504393
XXMU       0.010622679   0.020925714   0.010812295



     Writing output data file a-RuCl3.mu1.rel.1x1x1.010020010.save
     NEW-OLD atomic charge density approx. for the potential

     total cpu time spent up to now is      444.5 secs

     Self-consistent Calculation

     iteration #  1     ecut=    60.00 Ry     beta=0.70
     Davidson diagonalization with overlap
     ethr =  1.00E-06,  avg # of iterations =  4.0

     total cpu time spent up to now is      463.8 secs

     total energy              =   -1205.33120035 Ry
     Harris-Foulkes estimate   =   -1205.33221334 Ry
     estimated scf accuracy    <       0.00120173 Ry

     iteration #  2     ecut=    60.00 Ry     beta=0.70
     Davidson diagonalization with overlap
     ethr =  8.07E-07,  avg # of iterations =  7.6

     total cpu time spent up to now is      481.9 secs

     total energy              =   -1205.31607887 Ry
     Harris-Foulkes estimate   =   -1205.35307830 Ry
     estimated scf accuracy    <       0.74323625 Ry

     iteration #  3     ecut=    60.00 Ry     beta=0.70
     Davidson diagonalization with overlap
     ethr =  8.07E-07,  avg # of iterations =  7.6

     total cpu time spent up to now is      500.0 secs

     total energy              =   -1205.33199177 Ry
     Harris-Foulkes estimate   =   -1205.33227158 Ry
     estimated scf accuracy    <       0.00210698 Ry

     iteration #  4     ecut=    60.00 Ry     beta=0.70
     Davidson diagonalization with overlap
     ethr =  8.07E-07,  avg # of iterations =  1.0

     total cpu time spent up to now is      509.0 secs

     total energy              =   -1205.33203598 Ry
     Harris-Foulkes estimate   =   -1205.33228673 Ry
     estimated scf accuracy    <       0.00352130 Ry

     iteration #  5     ecut=    60.00 Ry     beta=0.70
     Davidson diagonalization with overlap
     ethr =  8.07E-07,  avg # of iterations =  1.0

     total cpu time spent up to now is      518.1 secs

     total energy              =   -1205.33211004 Ry
     Harris-Foulkes estimate   =   -1205.33222123 Ry
     estimated scf accuracy    <       0.00092144 Ry

     iteration #  6     ecut=    60.00 Ry     beta=0.70
     Davidson diagonalization with overlap
     ethr =  6.18E-07,  avg # of iterations =  1.0

     total cpu time spent up to now is      527.0 secs

     total energy              =   -1205.33216058 Ry
     Harris-Foulkes estimate   =   -1205.33219323 Ry
     estimated scf accuracy    <       0.00024707 Ry

     iteration #  7     ecut=    60.00 Ry     beta=0.70
     Davidson diagonalization with overlap
     ethr =  1.66E-07,  avg # of iterations =  1.0

     total cpu time spent up to now is      536.0 secs

     total energy              =   -1205.33217666 Ry
     Harris-Foulkes estimate   =   -1205.33217827 Ry
     estimated scf accuracy    <       0.00000529 Ry

     iteration #  8     ecut=    60.00 Ry     beta=0.70
     Davidson diagonalization with overlap
     ethr =  3.55E-09,  avg # of iterations =  2.0

     total cpu time spent up to now is      547.1 secs

     total energy              =   -1205.33217723 Ry
     Harris-Foulkes estimate   =   -1205.33217813 Ry
     estimated scf accuracy    <       0.00000311 Ry

     iteration #  9     ecut=    60.00 Ry     beta=0.70
     Davidson diagonalization with overlap
     ethr =  2.09E-09,  avg # of iterations =  2.0

     total cpu time spent up to now is      556.8 secs

     total energy              =   -1205.33217764 Ry
     Harris-Foulkes estimate   =   -1205.33217776 Ry
     estimated scf accuracy    <       0.00000061 Ry

     iteration # 10     ecut=    60.00 Ry     beta=0.70
     Davidson diagonalization with overlap
     ethr =  4.09E-10,  avg # of iterations =  1.4

     total cpu time spent up to now is      565.9 secs

     total energy              =   -1205.33217770 Ry
     Harris-Foulkes estimate   =   -1205.33217771 Ry
     estimated scf accuracy    <       0.00000007 Ry

     iteration # 11     ecut=    60.00 Ry     beta=0.70
     Davidson diagonalization with overlap
     ethr =  4.80E-11,  avg # of iterations =  2.0

     total cpu time spent up to now is      576.0 secs

     End of self-consistent calculation

          k = 0.1667 0.0963 0.2320 ( 18618 PWs)   bands (ev):

   -66.2100 -66.1854 -66.1851 -66.1654 -36.2433 -36.2314 -36.2245 -36.2180
   -36.2157 -36.2122 -36.2052 -36.1968 -36.1906 -36.1730 -36.1546 -36.1474
   -10.0239  -9.6688  -9.3855  -9.2541  -9.2098  -9.1040  -9.0414  -8.9780
    -8.9594  -8.9296  -8.8829  -8.8640   0.2989   0.5247   0.5731   0.6665
     0.7692   0.8554   0.8808   0.9506   1.1743   1.2258   1.2810   1.3242
     1.3748   1.4016   1.5294   1.5743   1.8418   1.8924   2.1368   2.2082
     2.2948   2.4565   2.4850   2.8399   2.9677   3.0274   3.2045   3.3859
     3.4850   3.5825   3.6246   3.7542   3.8302   3.8715   3.9789   4.0498
     5.4724   5.5035   5.5745   5.6929   5.8283   5.8569   5.9207   6.0700
     6.2376   6.2884   6.3664   6.4365   7.6973   8.0734   8.1592   8.1879
     8.2450   8.3530   8.4393   8.4953   8.5829  12.7124  13.1676  13.3287
    13.4584  14.0385

          k = 0.1667 0.0963-0.4682 ( 18621 PWs)   bands (ev):

   -66.2100 -66.1854 -66.1851 -66.1654 -36.2434 -36.2314 -36.2245 -36.2180
   -36.2158 -36.2121 -36.2052 -36.1968 -36.1906 -36.1730 -36.1547 -36.1474
    -9.9251  -9.5850  -9.3923  -9.2909  -9.1755  -9.1326  -9.0894  -9.0429
    -8.9961  -8.9398  -8.9138  -8.8636   0.3596   0.4403   0.5534   0.7362
     0.7970   0.9193   0.9987   1.0402   1.0721   1.2100   1.2256   1.2847
     1.3228   1.3959   1.4525   1.7277   1.7570   1.8701   2.0972   2.3449
     2.4147   2.5949   2.6669   2.9031   2.9825   3.0561   3.1990   3.2439
     3.3799   3.5315   3.6132   3.6559   3.7801   3.8077   3.9137   4.0302
     5.4740   5.5219   5.5834   5.7490   5.8348   5.8739   5.8951   6.0655
     6.1478   6.2411   6.3029   6.4052   7.7303   8.1421   8.2344   8.2702
     8.2972   8.3389   8.4093   8.4461   8.5151  13.3985  13.4802  13.5847
    13.7944  13.8509

          k = 0.1667 0.0963-0.1181 ( 18613 PWs)   bands (ev):

   -66.2100 -66.1854 -66.1851 -66.1654 -36.2433 -36.2314 -36.2245 -36.2180
   -36.2158 -36.2122 -36.2052 -36.1968 -36.1906 -36.1729 -36.1547 -36.1474
   -10.0620  -9.6976  -9.3492  -9.2682  -9.1629  -9.1229  -9.0245  -8.9817
    -8.9434  -8.9087  -8.9022  -8.8534   0.1883   0.4088   0.4451   0.6772
     0.7686   0.8978   0.9540   1.0229   1.0706   1.1128   1.2175   1.2624
     1.3019   1.3614   1.4582   1.6105   1.7364   1.8350   2.1081   2.2110
     2.4026   2.5259   2.7307   2.9702   3.0303   3.1227   3.2370   3.4440
     3.5158   3.6158   3.6861   3.7737   3.8561   4.0159   4.0857   4.2068
     5.3897   5.5229   5.5870   5.7142   5.8290   5.8863   5.9785   6.0217
     6.1867   6.2106   6.2754   6.3123   7.6118   8.1678   8.2139   8.3248
     8.3524   8.4346   8.4539   8.4983   8.6095  12.3468  12.9045  13.1903
    13.3145  13.4663

          k = 0.1667-0.2889 0.2320 ( 18610 PWs)   bands (ev):

   -66.2100 -66.1854 -66.1851 -66.1654 -36.2433 -36.2312 -36.2243 -36.2183
   -36.2160 -36.2115 -36.2065 -36.1962 -36.1901 -36.1733 -36.1545 -36.1475
    -9.9756  -9.7782  -9.3418  -9.2320  -9.1656  -9.1095  -9.0563  -8.9864
    -8.9634  -8.9495  -8.8764  -8.8659   0.3435   0.4924   0.5393   0.6334
     0.7139   0.7690   0.9495   0.9953   1.1320   1.1818   1.1980   1.3307
     1.4167   1.4704   1.5121   1.6074   1.9032   1.9363   2.0908   2.2487
     2.5400   2.6182   2.7138   2.7882   2.8389   2.8915   3.1508   3.3323
     3.4211   3.5029   3.6353   3.6732   3.7489   3.8624   3.9129   4.0535
     5.5624   5.5654   5.6122   5.6607   5.7514   6.0178   6.0229   6.1131
     6.2032   6.2649   6.3216   6.3438   7.6982   8.0152   8.0741   8.2359
     8.2612   8.3397   8.3430   8.5653   8.5962  13.2544  13.2984  13.7093
    13.7603  13.8777

          k = 0.1667-0.2889-0.4682 ( 18628 PWs)   bands (ev):

   -66.2100 -66.1854 -66.1851 -66.1654 -36.2434 -36.2312 -36.2243 -36.2183
   -36.2160 -36.2115 -36.2065 -36.1962 -36.1901 -36.1733 -36.1545 -36.1475
    -9.8812  -9.6812  -9.3856  -9.2596  -9.1732  -9.0892  -9.0729  -9.0500
    -8.9939  -8.9840  -8.9122  -8.8628   0.3380   0.4244   0.4797   0.7412
     0.8624   0.9306   0.9917   1.0384   1.0694   1.0865   1.1639   1.2426
     1.2955   1.4168   1.6238   1.6745   1.9398   1.9847   2.1336   2.3415
     2.5845   2.6357   2.7415   2.8516   2.9049   2.9740   3.1681   3.2205
     3.3837   3.4531   3.4826   3.5982   3.7489   3.8335   3.8902   3.9643
     5.5353   5.5437   5.6356   5.7372   5.7926   5.9929   6.0053   6.0649
     6.1354   6.2385   6.2477   6.3554   7.7477   8.1123   8.1203   8.2811
     8.3095   8.3484   8.3850   8.4814   8.5027  13.3423  13.3984  13.7877
    13.8395  13.9615

          k = 0.1667-0.2889-0.1181 ( 18626 PWs)   bands (ev):

   -66.2100 -66.1854 -66.1851 -66.1654 -36.2433 -36.2312 -36.2243 -36.2183
   -36.2160 -36.2115 -36.2065 -36.1962 -36.1901 -36.1733 -36.1545 -36.1475
   -10.0095  -9.8131  -9.3131  -9.2198  -9.1286  -9.1144  -9.0398  -8.9918
    -8.9606  -8.9307  -8.9035  -8.8515   0.2726   0.4157   0.4569   0.4922
     0.5966   0.8607   0.9209   1.0775   1.0948   1.1178   1.2015   1.2723
     1.4056   1.4388   1.5439   1.5750   1.8578   1.8984   2.0472   2.2460
     2.5545   2.7121   2.7495   2.8235   2.8439   3.1270   3.2292   3.4377
     3.4478   3.5551   3.6186   3.6915   3.8889   3.8986   4.0791   4.2423
     5.5372   5.5431   5.6573   5.7755   5.7870   5.9742   6.0131   6.0284
     6.0682   6.2029   6.2348   6.2747   7.6277   8.1430   8.1874   8.2735
     8.2923   8.4162   8.4461   8.5872   8.6096  12.8137  12.8457  13.3229
    13.3687  13.6621

          k =-0.5000 0.0963 0.0042 ( 18623 PWs)   bands (ev):

   -66.2099 -66.1854 -66.1851 -66.1654 -36.2431 -36.2332 -36.2232 -36.2181
   -36.2144 -36.2082 -36.2067 -36.2002 -36.1863 -36.1766 -36.1554 -36.1473
    -9.7524  -9.6553  -9.4168  -9.3767  -9.2114  -9.1686  -9.0529  -9.0425
    -8.9720  -8.9446  -8.9066  -8.8595   0.3032   0.4580   0.6581   0.7565
     0.7890   0.8553   0.9190   1.0297   1.0979   1.1174   1.1482   1.2464
     1.2955   1.4165   1.5043   1.7500   1.8719   2.0051   2.1982   2.2903
     2.4674   2.4861   2.7837   2.8963   3.0177   3.0926   3.1668   3.2488
     3.3624   3.4581   3.5449   3.6236   3.7279   3.8742   3.8840   4.0340
     5.3947   5.5132   5.5784   5.6980   5.7808   5.8977   5.9287   6.1139
     6.2802   6.3038   6.3403   6.4018   7.6948   8.1418   8.1881   8.2792
     8.3010   8.3184   8.3743   8.4670   8.5298  13.3739  13.4632  13.5606
    13.7072  13.8519

          k =-0.5000 0.0963-0.6961 ( 18660 PWs)   bands (ev):

   -66.2100 -66.1854 -66.1851 -66.1654 -36.2431 -36.2332 -36.2233 -36.2182
   -36.2144 -36.2082 -36.2067 -36.2002 -36.1863 -36.1766 -36.1554 -36.1473
    -9.6871  -9.6246  -9.3958  -9.3454  -9.1837  -9.1460  -9.0720  -9.0520
    -9.0061  -8.9863  -8.9706  -8.9131   0.1580   0.3310   0.5995   0.6117
     0.7648   0.7927   0.9150   0.9356   1.0685   1.0944   1.1990   1.2088
     1.3332   1.6613   1.7674   1.7773   1.8708   2.0000   2.2941   2.3707
     2.4340   2.5505   2.9448   3.0414   3.0512   3.1108   3.1358   3.1745
     3.4468   3.4714   3.6109   3.6387   3.8160   3.8558   3.8789   4.0308
     5.3625   5.5030   5.5216   5.6610   5.7235   5.9078   5.9486   6.0001
     6.2126   6.2913   6.3923   6.4147   7.5399   8.0716   8.1000   8.3801
     8.3980   8.4537   8.4768   8.5797   8.5822  12.7198  12.8565  13.0414
    13.1361  13.5077

          k =-0.5000-0.2889 0.0042 ( 18636 PWs)   bands (ev):

   -66.2100 -66.1854 -66.1851 -66.1654 -36.2431 -36.2330 -36.2232 -36.2186
   -36.2153 -36.2079 -36.2061 -36.1999 -36.1865 -36.1768 -36.1549 -36.1476
    -9.7348  -9.6391  -9.4711  -9.3928  -9.2059  -9.1434  -9.0608  -9.0454
    -8.9772  -8.9334  -8.8895  -8.8644   0.1414   0.3478   0.6795   0.7768
     0.8331   0.8841   0.9445   1.0087   1.1200   1.1495   1.2229   1.2670
     1.3128   1.5724   1.6043   1.9413   2.0589   2.1081   2.1679   2.1837
     2.2856   2.3249   2.4954   2.5133   2.9208   3.0164   3.2487   3.3319
     3.4832   3.5286   3.5722   3.5899   3.7531   3.9531   4.0408   4.1643
     5.3384   5.4144   5.4217   5.6557   5.8129   5.9514   5.9674   6.2331
     6.2662   6.2802   6.3618   6.3662   7.7251   8.0633   8.0850   8.2722
     8.3040   8.3974   8.4405   8.4485   8.4680  13.2890  13.3956  13.6884
    13.7559  13.9620

          k =-0.5000-0.2889-0.6961 ( 18708 PWs)   bands (ev):

   -66.2100 -66.1855 -66.1851 -66.1655 -36.2432 -36.2330 -36.2232 -36.2187
   -36.2154 -36.2079 -36.2061 -36.2000 -36.1866 -36.1769 -36.1550 -36.1476
    -9.6685  -9.6102  -9.4213  -9.3746  -9.2074  -9.1380  -9.0773  -9.0499
    -8.9982  -8.9738  -8.9488  -8.9129  -0.0162   0.1930   0.6063   0.6214
     0.8074   0.9031   0.9419   0.9925   1.1864   1.2068   1.2791   1.2882
     1.3637   1.6036   1.6786   2.0137   2.0488   2.1358   2.1572   2.1812
     2.3843   2.4157   2.4884   2.5363   3.1264   3.1468   3.1980   3.2544
     3.4727   3.5043   3.6071   3.7670   3.8625   3.9493   4.0933   4.1163
     5.3335   5.4018   5.4157   5.6237   5.8314   5.9061   5.9387   6.1069
     6.1680   6.2010   6.3896   6.4398   7.5661   8.0946   8.1208   8.2740
     8.3019   8.4324   8.4511   8.6405   8.6448  12.4869  12.8133  12.8251
    12.9050  14.1052

          k =-0.1667 0.0963-0.2320 ( 18618 PWs)   bands (ev):

   -66.2100 -66.1854 -66.1851 -66.1654 -36.2433 -36.2314 -36.2245 -36.2181
   -36.2157 -36.2123 -36.2051 -36.1967 -36.1906 -36.1729 -36.1546 -36.1474
   -10.0233  -9.6737  -9.3560  -9.2900  -9.2067  -9.0978  -9.0381  -8.9785
    -8.9582  -8.9328  -8.8817  -8.8644   0.2992   0.5280   0.5705   0.6695
     0.7672   0.8500   0.8825   0.9517   1.1673   1.2310   1.2883   1.3088
     1.3757   1.4050   1.5308   1.5756   1.8437   1.9016   2.1417   2.2045
     2.2906   2.4592   2.4812   2.8299   2.9650   3.0356   3.1978   3.3984
     3.4761   3.5834   3.6253   3.7533   3.8332   3.8714   3.9788   4.0512
     5.4654   5.5062   5.5747   5.6929   5.8309   5.8598   5.9206   6.0690
     6.2371   6.2873   6.3671   6.4359   7.6977   8.0744   8.1608   8.1870
     8.2445   8.3518   8.4385   8.4946   8.5834  12.7135  13.1695  13.3291
    13.4591  14.0352

          k =-0.1667 0.0963 0.4682 ( 18621 PWs)   bands (ev):

   -66.2100 -66.1854 -66.1851 -66.1654 -36.2434 -36.2314 -36.2245 -36.2181
   -36.2157 -36.2123 -36.2051 -36.1967 -36.1907 -36.1730 -36.1547 -36.1474
    -9.9248  -9.5892  -9.3784  -9.2984  -9.1889  -9.1213  -9.0897  -9.0410
    -8.9986  -8.9387  -8.9141  -8.8637   0.3576   0.4448   0.5584   0.7365
     0.7880   0.9149   0.9920   1.0403   1.0763   1.2088   1.2315   1.2904
     1.3173   1.3928   1.4547   1.7303   1.7554   1.8820   2.0975   2.3439
     2.4131   2.5924   2.6654   2.8948   2.9822   3.0598   3.1783   3.2614
     3.3829   3.5207   3.6229   3.6629   3.7779   3.8077   3.9135   4.0303
     5.4713   5.5242   5.5788   5.7497   5.8375   5.8747   5.8955   6.0670
     6.1466   6.2401   6.3034   6.4049   7.7308   8.1433   8.2347   8.2698
     8.2957   8.3383   8.4085   8.4458   8.5161  13.4041  13.4743  13.5815
    13.7990  13.8556

          k =-0.1667 0.0963 0.1181 ( 18613 PWs)   bands (ev):

   -66.2100 -66.1854 -66.1851 -66.1654 -36.2433 -36.2314 -36.2245 -36.2180
   -36.2157 -36.2123 -36.2051 -36.1967 -36.1907 -36.1729 -36.1547 -36.1474
   -10.0618  -9.6995  -9.3225  -9.2991  -9.1597  -9.1213  -9.0222  -8.9826
    -8.9434  -8.9091  -8.9025  -8.8533   0.1882   0.4106   0.4437   0.6797
     0.7723   0.8952   0.9563   1.0098   1.0689   1.1175   1.2202   1.2612
     1.2946   1.3645   1.4577   1.6147   1.7316   1.8477   2.1095   2.2108
     2.4075   2.5233   2.7247   2.9663   3.0218   3.1179   3.2431   3.4560
     3.5119   3.6138   3.6857   3.7778   3.8550   4.0157   4.0876   4.2062
     5.3869   5.5243   5.5830   5.7164   5.8284   5.8932   5.9773   6.0193
     6.1846   6.2117   6.2753   6.3130   7.6116   8.1683   8.2142   8.3216
     8.3543   8.4363   8.4529   8.4979   8.6096  12.3468  12.9043  13.1918
    13.3158  13.4637

          k = 0.5000 0.0963-0.0042 ( 18623 PWs)   bands (ev):

   -66.2099 -66.1854 -66.1851 -66.1654 -36.2431 -36.2332 -36.2232 -36.2181
   -36.2144 -36.2082 -36.2067 -36.2002 -36.1863 -36.1766 -36.1554 -36.1473
    -9.7558  -9.6467  -9.4432  -9.3530  -9.2117  -9.1702  -9.0494  -9.0469
    -8.9761  -8.9378  -8.9091  -8.8594   0.3033   0.4582   0.6562   0.7553
     0.7926   0.8628   0.9121   1.0253   1.0999   1.1167   1.1516   1.2430
     1.2953   1.4151   1.5067   1.7579   1.8657   2.0053   2.1954   2.2934
     2.4673   2.4875   2.7798   2.8887   3.0261   3.0888   3.1664   3.2540
     3.3767   3.4509   3.5433   3.6139   3.7309   3.8736   3.8856   4.0339
     5.3952   5.5122   5.5779   5.7031   5.7776   5.8968   5.9278   6.1148
     6.2817   6.3035   6.3393   6.4018   7.6954   8.1424   8.1874   8.2824
     8.2978   8.3192   8.3740   8.4662   8.5295  13.3787  13.4649  13.5541
    13.7048  13.8538

     the Fermi energy is     6.3310 ev

!    total energy              =   -1205.33217770 Ry
     Harris-Foulkes estimate   =   -1205.33217771 Ry
     estimated scf accuracy    <          6.4E-09 Ry

     The total energy is the sum of the following terms:

     one-electron contribution =    -662.81326032 Ry
     hartree contribution      =     385.54910327 Ry
     xc contribution           =    -246.37115532 Ry
     ewald contribution        =    -681.68040149 Ry
     smearing contrib. (-TS)   =      -0.01646384 Ry

     convergence has been achieved in  11 iterations

     Forces acting on atoms (Ry/au):

     atom    1 type  1   force =     0.00015674    0.00029638   -0.00027559
     atom    2 type  1   force =     0.00010860    0.00201752   -0.00014966
     atom    3 type  1   force =     0.00003219   -0.00164267   -0.00008701
     atom    4 type  1   force =    -0.00003968    0.00038794   -0.00014108
     atom    5 type  2   force =     0.00714622   -0.00954503    0.01613144
     atom    6 type  2   force =    -0.00165380    0.00471118   -0.00608461
     atom    7 type  2   force =    -0.00979478   -0.01530767   -0.02043899
     atom    8 type  2   force =     0.00103601    0.00285918    0.00500925
     atom    9 type  2   force =    -0.00122610    0.00167607    0.00183677
     atom   10 type  2   force =     0.00175378   -0.00133073   -0.00176527
     atom   11 type  2   force =     0.00140876    0.00160335   -0.00197925
     atom   12 type  2   force =    -0.00137014   -0.00147502    0.00160528
     atom   13 type  2   force =     0.00808149    0.00098279   -0.00933580
     atom   14 type  2   force =    -0.00841808    0.00119170    0.01069331
     atom   15 type  2   force =    -0.00309234    0.00138034   -0.00355222
     atom   16 type  2   force =     0.00335838    0.00123881    0.00401413
     atom   17 type  3   force =     0.00251274    0.01095586    0.00451931

     Total force =     0.042714     Total SCF correction =     0.000283


     entering subroutine stress ...

          total   stress  (Ry/bohr**3)                   (kbar)     P=    8.63
   0.00007704  -0.00000143  -0.00000463         11.33     -0.21     -0.68
  -0.00000143   0.00006817  -0.00000352         -0.21     10.03     -0.52
  -0.00000463  -0.00000352   0.00003073         -0.68     -0.52      4.52


     number of scf cycles    =   3
     number of bfgs steps    =   2

     energy   old            =   -1205.3295019984 Ry
     energy   new            =   -1205.3321777015 Ry

     CASE: energy  _new < energy  _old

     new trust radius        =       0.0537441151 bohr
     new conv_thr            =       0.0000000100 Ry


ATOMIC_POSITIONS (crystal)
Ru       0.000043042   0.335178163  -0.000100924
Ru       0.000017562   0.665959147  -0.000072773
Ru       0.500060022   0.833661026  -0.000067089
Ru       0.500138616   0.166164919  -0.000070257
Cl       0.756456261   0.171362618   0.773529210
Cl       0.246900657   0.827526050   0.230553969
Cl       0.242096401   0.170190467   0.224953259
Cl       0.752721499   0.827092824   0.769041778
Cl       0.251230559   0.674039387   0.767416832
Cl       0.748981140   0.325997904   0.232555220
Cl       0.748804895   0.674031796   0.232532526
Cl       0.251110287   0.325981193   0.767380603
Cl       0.732075333   0.000285798   0.234658958
Cl       0.267971518   0.000323778   0.765942125
Cl       0.227902464   0.500162561   0.236813661
Cl       0.772221266   0.500119650   0.763346652
XXMU       0.011268478   0.021922719   0.011586249



     Writing output data file a-RuCl3.mu1.rel.1x1x1.010020010.save
     NEW-OLD atomic charge density approx. for the potential

     total cpu time spent up to now is      612.5 secs

     Self-consistent Calculation

     iteration #  1     ecut=    60.00 Ry     beta=0.70
     Davidson diagonalization with overlap
     ethr =  1.00E-06,  avg # of iterations =  4.5

     total cpu time spent up to now is      632.7 secs

     total energy              =   -1205.33217710 Ry
     Harris-Foulkes estimate   =   -1205.33556738 Ry
     estimated scf accuracy    <       0.00396152 Ry

     iteration #  2     ecut=    60.00 Ry     beta=0.70
     Davidson diagonalization with overlap
     ethr =  2.66E-06,  avg # of iterations =  7.9

     total cpu time spent up to now is      652.0 secs

     total energy              =   -1205.30303574 Ry
     Harris-Foulkes estimate   =   -1205.39538476 Ry
     estimated scf accuracy    <       1.40381920 Ry

     iteration #  3     ecut=    60.00 Ry     beta=0.70
     Davidson diagonalization with overlap
     ethr =  2.66E-06,  avg # of iterations =  8.0

     total cpu time spent up to now is      671.3 secs

     total energy              =   -1205.33521375 Ry
     Harris-Foulkes estimate   =   -1205.33556581 Ry
     estimated scf accuracy    <       0.00276134 Ry

     iteration #  4     ecut=    60.00 Ry     beta=0.70
     Davidson diagonalization with overlap
     ethr =  1.85E-06,  avg # of iterations =  1.0

     total cpu time spent up to now is      680.3 secs

     total energy              =   -1205.33511897 Ry
     Harris-Foulkes estimate   =   -1205.33577757 Ry
     estimated scf accuracy    <       0.01071810 Ry

     iteration #  5     ecut=    60.00 Ry     beta=0.70
     Davidson diagonalization with overlap
     ethr =  1.85E-06,  avg # of iterations =  1.0

     total cpu time spent up to now is      689.3 secs

     total energy              =   -1205.33535561 Ry
     Harris-Foulkes estimate   =   -1205.33553018 Ry
     estimated scf accuracy    <       0.00134383 Ry

     iteration #  6     ecut=    60.00 Ry     beta=0.70
     Davidson diagonalization with overlap
     ethr =  9.02E-07,  avg # of iterations =  1.0

     total cpu time spent up to now is      698.3 secs

     total energy              =   -1205.33542185 Ry
     Harris-Foulkes estimate   =   -1205.33549185 Ry
     estimated scf accuracy    <       0.00048230 Ry

     iteration #  7     ecut=    60.00 Ry     beta=0.70
     Davidson diagonalization with overlap
     ethr =  3.24E-07,  avg # of iterations =  1.0

     total cpu time spent up to now is      707.2 secs

     total energy              =   -1205.33545720 Ry
     Harris-Foulkes estimate   =   -1205.33546642 Ry
     estimated scf accuracy    <       0.00013448 Ry

     iteration #  8     ecut=    60.00 Ry     beta=0.70
     Davidson diagonalization with overlap
     ethr =  9.03E-08,  avg # of iterations =  1.0

     total cpu time spent up to now is      716.1 secs

     total energy              =   -1205.33546077 Ry
     Harris-Foulkes estimate   =   -1205.33546202 Ry
     estimated scf accuracy    <       0.00001048 Ry

     iteration #  9     ecut=    60.00 Ry     beta=0.70
     Davidson diagonalization with overlap
     ethr =  7.03E-09,  avg # of iterations =  1.0

     total cpu time spent up to now is      724.8 secs

     total energy              =   -1205.33546118 Ry
     Harris-Foulkes estimate   =   -1205.33546159 Ry
     estimated scf accuracy    <       0.00000272 Ry

     iteration # 10     ecut=    60.00 Ry     beta=0.70
     Davidson diagonalization with overlap
     ethr =  1.82E-09,  avg # of iterations =  1.0

     total cpu time spent up to now is      733.4 secs

     total energy              =   -1205.33546137 Ry
     Harris-Foulkes estimate   =   -1205.33546141 Ry
     estimated scf accuracy    <       0.00000029 Ry

     iteration # 11     ecut=    60.00 Ry     beta=0.70
     Davidson diagonalization with overlap
     ethr =  1.94E-10,  avg # of iterations =  2.0

     total cpu time spent up to now is      742.8 secs

     total energy              =   -1205.33546139 Ry
     Harris-Foulkes estimate   =   -1205.33546141 Ry
     estimated scf accuracy    <       0.00000008 Ry

     iteration # 12     ecut=    60.00 Ry     beta=0.70
     Davidson diagonalization with overlap
     ethr =  5.32E-11,  avg # of iterations =  1.0

     total cpu time spent up to now is      751.4 secs

     End of self-consistent calculation

          k = 0.1667 0.0963 0.2320 ( 18618 PWs)   bands (ev):

   -66.2093 -66.1830 -66.1788 -66.1566 -36.2439 -36.2287 -36.2201 -36.2161
   -36.2111 -36.2077 -36.2063 -36.1899 -36.1844 -36.1755 -36.1498 -36.1417
   -10.0495  -9.6803  -9.4005  -9.2643  -9.2096  -9.1076  -9.0373  -8.9854
    -8.9662  -8.9343  -8.8903  -8.8720   0.2567   0.5094   0.5686   0.6406
     0.7599   0.8388   0.8630   0.9357   1.1532   1.2101   1.2584   1.3096
     1.3631   1.3900   1.5204   1.5592   1.8411   1.8797   2.1306   2.2073
     2.2849   2.4507   2.4785   2.8410   2.9654   3.0219   3.1884   3.3882
     3.4824   3.5846   3.6310   3.7560   3.8237   3.8796   3.9754   4.0463
     5.4675   5.5097   5.5739   5.6986   5.8289   5.8582   5.9241   6.0757
     6.2426   6.2943   6.3679   6.4389   7.7705   8.0913   8.1764   8.2046
     8.2643   8.3763   8.4605   8.5156   8.5990  12.7145  13.1641  13.3257
    13.4763  14.0479

          k = 0.1667 0.0963-0.4682 ( 18621 PWs)   bands (ev):

   -66.2093 -66.1830 -66.1788 -66.1566 -36.2440 -36.2287 -36.2201 -36.2161
   -36.2111 -36.2077 -36.2063 -36.1899 -36.1844 -36.1756 -36.1499 -36.1417
    -9.9577  -9.5999  -9.4004  -9.2920  -9.1773  -9.1381  -9.0916  -9.0439
    -9.0007  -8.9470  -8.9218  -8.8721   0.3128   0.4268   0.5356   0.7171
     0.7796   0.9005   0.9844   1.0312   1.0577   1.1945   1.2033   1.2682
[...]

     total cpu time spent up to now is    16393.3 secs

     total energy              =   -1205.41021221 Ry
     Harris-Foulkes estimate   =   -1205.41021221 Ry
     estimated scf accuracy    <          1.8E-10 Ry

     iteration # 10     ecut=    60.00 Ry     beta=0.70
     Davidson diagonalization with overlap
     ethr =  1.18E-13,  avg # of iterations =  2.0

     total cpu time spent up to now is    16404.1 secs

     total energy              =   -1205.41021221 Ry
     Harris-Foulkes estimate   =   -1205.41021221 Ry
     estimated scf accuracy    <          1.0E-10 Ry

     iteration # 11     ecut=    60.00 Ry     beta=0.70
     Davidson diagonalization with overlap
     ethr =  1.00E-13,  avg # of iterations =  2.0

     total cpu time spent up to now is    16413.6 secs

     End of self-consistent calculation

          k = 0.1667 0.0963 0.2320 ( 18618 PWs)   bands (ev):

   -66.1626 -66.1326 -66.0578 -65.9724 -36.2583 -36.2478 -36.2070 -36.1966
   -36.0994 -36.0696 -36.0543 -36.0490 -36.0340 -36.0259 -35.9898 -35.9657
   -11.3034  -9.7434  -9.4771  -9.2891  -9.1207  -8.9950  -8.9380  -8.8962
    -8.8705  -8.8406  -8.8098  -8.7480  -1.8026   0.2355   0.4143   0.6289
     0.7774   0.8493   0.9335   0.9760   1.1224   1.2447   1.3152   1.3747
     1.4324   1.4796   1.5740   1.6140   1.7264   1.8694   2.0588   2.2053
     2.2956   2.4643   2.5880   2.7810   2.9048   3.0367   3.2565   3.3423
     3.5340   3.6697   3.7165   3.7917   3.8855   3.9222   4.0487   4.0995
     5.4619   5.5754   5.7376   5.7830   5.8904   5.9396   6.0384   6.1860
     6.2876   6.3952   6.4833   6.5910   7.9108   8.1156   8.2038   8.3083
     8.3523   8.4798   8.5354   8.6269  10.3874  12.5837  13.0164  13.3033
    13.4928  13.9245

          k = 0.1667 0.0963-0.4682 ( 18621 PWs)   bands (ev):

   -66.1626 -66.1326 -66.0578 -65.9724 -36.2583 -36.2478 -36.2070 -36.1967
   -36.0994 -36.0696 -36.0543 -36.0490 -36.0341 -36.0259 -35.9898 -35.9657
   -11.2888  -9.6704  -9.4100  -9.2846  -9.1250  -9.0174  -8.9932  -8.9243
    -8.9080  -8.8576  -8.8332  -8.7639  -1.8205   0.1960   0.4854   0.6629
     0.8291   0.9067   1.0079   1.0658   1.1235   1.2358   1.2516   1.3047
     1.3861   1.4784   1.5088   1.6627   1.7688   1.8407   2.0939   2.2624
     2.4203   2.5091   2.7383   2.8004   2.9211   3.0521   3.1590   3.3635
     3.4102   3.5508   3.6795   3.7300   3.8456   3.8905   3.9999   4.0865
     5.4782   5.5924   5.7391   5.7888   5.9046   5.9348   6.0115   6.1776
     6.2704   6.3520   6.4021   6.5646   8.0192   8.1112   8.2123   8.3543
     8.4013   8.4422   8.5330   8.6139  10.4005  13.2298  13.3211  13.4990
    13.6551  13.7150

          k = 0.1667 0.0963-0.1181 ( 18613 PWs)   bands (ev):

   -66.1625 -66.1326 -66.0578 -65.9724 -36.2583 -36.2478 -36.2070 -36.1966
   -36.0994 -36.0696 -36.0543 -36.0490 -36.0340 -36.0259 -35.9898 -35.9657
   -11.3084  -9.7843  -9.4823  -9.2793  -9.0862  -8.9949  -8.9248  -8.8825
    -8.8709  -8.8413  -8.8130  -8.7400  -1.8212   0.1570   0.3065   0.4954
     0.7505   0.8123   1.0008   1.0735   1.1105   1.1836   1.2604   1.3380
     1.3882   1.4373   1.4996   1.6086   1.6647   1.8134   2.0512   2.1977
     2.3921   2.4774   2.7464   2.8998   3.0578   3.1401   3.2821   3.3911
     3.5506   3.6243   3.7083   3.8289   3.9413   4.0871   4.1418   4.2891
     5.3664   5.6119   5.7161   5.7588   5.9033   5.9998   6.0549   6.1440
     6.2795   6.2886   6.4232   6.4626   7.9611   8.2435   8.2599   8.3734
     8.4334   8.5193   8.5936   8.7209  10.2868  12.2383  12.6697  13.1920
    13.3266  13.3956

          k = 0.1667-0.2889 0.2320 ( 18610 PWs)   bands (ev):

   -66.1626 -66.1326 -66.0578 -65.9724 -36.2583 -36.2478 -36.2070 -36.1967
   -36.0994 -36.0696 -36.0542 -36.0491 -36.0340 -36.0258 -35.9898 -35.9657
   -11.3027  -9.6995  -9.5891  -9.2229  -9.0492  -9.0203  -8.9729  -8.9128
    -8.8712  -8.8315  -8.8088  -8.7505  -1.8059   0.2130   0.4301   0.6192
     0.7614   0.8178   0.9634   0.9803   1.1081   1.1767   1.3028   1.3549
     1.4050   1.5004   1.5885   1.6663   1.7558   1.9319   2.0424   2.1745
     2.3801   2.5967   2.7077   2.8355   2.8988   3.0130   3.2240   3.3066
     3.4382   3.5701   3.6762   3.7351   3.8278   3.9336   3.9726   4.1449
     5.4370   5.6165   5.7139   5.7890   5.9674   6.0334   6.1420   6.1971
     6.2953   6.3349   6.4540   6.5413   7.8460   8.0476   8.1351   8.3019
     8.3651   8.4455   8.5963   8.6680  10.4172  13.0627  13.2428  13.4574
    13.7426  13.7733

          k = 0.1667-0.2889-0.4682 ( 18628 PWs)   bands (ev):

   -66.1626 -66.1326 -66.0578 -65.9724 -36.2583 -36.2478 -36.2070 -36.1967
   -36.0994 -36.0696 -36.0542 -36.0491 -36.0341 -36.0259 -35.9898 -35.9657
   -11.2883  -9.6129  -9.5354  -9.2478  -9.0420  -9.0320  -8.9952  -8.9614
    -8.9001  -8.8586  -8.8337  -8.7680  -1.8251   0.1746   0.4669   0.6791
     0.8388   0.8896   0.9606   1.0654   1.1254   1.1876   1.2302   1.2818
     1.3865   1.4438   1.6219   1.6852   1.8088   2.0067   2.0497   2.2744
     2.4620   2.6232   2.7241   2.8695   2.9042   3.0499   3.1767   3.2278
     3.3283   3.5053   3.5896   3.7222   3.7896   3.9052   3.9972   4.0739
     5.4093   5.6260   5.7155   5.8547   5.9274   6.0393   6.1303   6.1883
     6.2413   6.2935   6.3944   6.5420   7.9701   8.1090   8.1147   8.3443
     8.3838   8.4870   8.5400   8.6269  10.4210  13.1511  13.2306  13.5755
    13.8197  13.9287

          k = 0.1667-0.2889-0.1181 ( 18626 PWs)   bands (ev):

   -66.1626 -66.1326 -66.0578 -65.9724 -36.2583 -36.2478 -36.2070 -36.1966
   -36.0994 -36.0696 -36.0542 -36.0491 -36.0341 -36.0259 -35.9898 -35.9657
   -11.3077  -9.7379  -9.6094  -9.1791  -9.0295  -9.0059  -8.9712  -8.8950
    -8.8682  -8.8421  -8.8188  -8.7424  -1.8242   0.1371   0.3291   0.5140
     0.6986   0.7336   0.9434   1.0524   1.1294   1.1725   1.2498   1.3707
     1.4176   1.4691   1.5202   1.6120   1.8082   1.9466   1.9909   2.1605
     2.3912   2.6756   2.7085   2.8959   2.9188   3.1456   3.2724   3.3850
     3.5250   3.6085   3.6589   3.7878   3.9070   3.9921   4.1438   4.3256
     5.3655   5.6389   5.7084   5.8884   5.9654   6.0307   6.0741   6.1738
     6.2141   6.2377   6.4057   6.4336   7.9510   8.1500   8.2047   8.3566
     8.4180   8.5271   8.6300   8.7577  10.3378  12.6290  12.8326  13.0049
    13.3916  13.5325

          k =-0.5000 0.0963 0.0042 ( 18623 PWs)   bands (ev):

   -66.1625 -66.1326 -66.0578 -65.9724 -36.2583 -36.2479 -36.2071 -36.1967
   -36.0984 -36.0682 -36.0528 -36.0498 -36.0367 -36.0261 -35.9897 -35.9656
   -11.2740  -9.6033  -9.4257  -9.2576  -9.1636  -9.1267  -8.9911  -8.9485
    -8.8966  -8.8494  -8.8108  -8.7460  -1.7886   0.2906   0.4909   0.6707
     0.7919   0.8392   0.9673   1.0536   1.0913   1.1582   1.1912   1.3064
     1.3560   1.4428   1.5255   1.6165   1.8577   1.9735   2.1709   2.3240
     2.4592   2.5937   2.6358   2.8200   2.9741   3.1067   3.1690   3.2958
     3.3160   3.5353   3.6608   3.7174   3.7900   3.9045   3.9674   4.1090
     5.4690   5.6008   5.6708   5.7315   5.9282   6.0021   6.0705   6.1556
     6.3692   6.3931   6.4491   6.5187   8.0098   8.1093   8.1736   8.3387
     8.4057   8.4341   8.5259   8.6049  10.3303  13.1618  13.2672  13.4745
    13.6258  13.7904

          k =-0.5000 0.0963-0.6961 ( 18660 PWs)   bands (ev):

   -66.1626 -66.1326 -66.0578 -65.9725 -36.2583 -36.2479 -36.2071 -36.1967
   -36.0985 -36.0683 -36.0529 -36.0498 -36.0368 -36.0261 -35.9897 -35.9656
   -11.2660  -9.5761  -9.3953  -9.1763  -9.1371  -9.1110  -8.9945  -8.9656
    -8.9263  -8.8934  -8.8527  -8.8219  -1.8294   0.1799   0.4265   0.6022
     0.6904   0.7761   0.8832   0.9935   1.0743   1.1288   1.2464   1.2873
     1.4102   1.5466   1.7537   1.8335   1.8866   2.0399   2.1988   2.3165
     2.4612   2.5857   2.6701   2.9340   3.0646   3.1497   3.2114   3.2394
     3.3136   3.5207   3.6329   3.7617   3.8634   3.9284   4.0230   4.1183
     5.3737   5.4839   5.6534   5.7387   5.9054   6.0006   6.0452   6.0791
     6.3240   6.3897   6.4682   6.5213   7.9523   8.1316   8.2585   8.3875
     8.4662   8.5808   8.6223   8.7089  10.2126  12.5479  12.6714  13.0305
    13.1535  13.4788

          k =-0.5000-0.2889 0.0042 ( 18636 PWs)   bands (ev):

   -66.1625 -66.1326 -66.0578 -65.9724 -36.2583 -36.2479 -36.2071 -36.1967
   -36.0984 -36.0682 -36.0521 -36.0507 -36.0367 -36.0260 -35.9897 -35.9656
   -11.2737  -9.5845  -9.4490  -9.2611  -9.1749  -9.1307  -8.9752  -8.9481
    -8.9011  -8.8371  -8.8138  -8.7429  -1.7970   0.2088   0.5080   0.6148
     0.7526   0.8936   0.9667   1.0433   1.0643   1.1146   1.2393   1.3178
     1.3400   1.5622   1.6818   1.7982   2.0245   2.1238   2.1955   2.2191
     2.3019   2.4023   2.5319   2.6421   2.8362   2.9685   3.1165   3.2806
     3.4530   3.5696   3.6499   3.7208   3.8359   4.0080   4.0765   4.2583
     5.3351   5.5570   5.6075   5.6794   5.9103   6.0551   6.1700   6.2332
     6.3742   6.4104   6.4363   6.4801   7.9482   8.0670   8.1127   8.3617
     8.4022   8.4804   8.5315   8.5914  10.3113  13.0744  13.2831  13.6176
    13.7628  13.8868

          k =-0.5000-0.2889-0.6961 ( 18708 PWs)   bands (ev):

   -66.1626 -66.1326 -66.0578 -65.9725 -36.2584 -36.2479 -36.2072 -36.1968
   -36.0985 -36.0683 -36.0521 -36.0508 -36.0368 -36.0260 -35.9898 -35.9656
   -11.2657  -9.5657  -9.3909  -9.2140  -9.1381  -9.1211  -8.9889  -8.9693
    -8.9100  -8.8853  -8.8539  -8.8116  -1.8399   0.0827   0.3493   0.5660
     0.7328   0.8006   0.9099   1.0085   1.1284   1.1953   1.2768   1.4173
     1.4884   1.5967   1.7104   1.9629   2.0362   2.0883   2.1199   2.2094
     2.3151   2.5075   2.5705   2.6502   2.9147   3.0345   3.1985   3.2822
     3.3874   3.5054   3.6281   3.8817   3.9495   4.0163   4.1712   4.2111
     5.2808   5.4655   5.5972   5.6999   5.9100   6.0251   6.1151   6.1387
     6.2808   6.3546   6.4604   6.5248   7.9703   8.1055   8.1990   8.3305
     8.4434   8.5768   8.6400   8.7688  10.2026  12.3378  12.4750  12.8561
    13.1469  13.9663

          k =-0.1667 0.0963-0.2320 ( 18618 PWs)   bands (ev):

   -66.1626 -66.1326 -66.0578 -65.9724 -36.2583 -36.2477 -36.2070 -36.1967
   -36.0994 -36.0696 -36.0543 -36.0489 -36.0341 -36.0259 -35.9898 -35.9656
   -11.3033  -9.7493  -9.4647  -9.2807  -9.1422  -8.9966  -8.9312  -8.9092
    -8.8681  -8.8289  -8.8077  -8.7501  -1.8040   0.2524   0.4208   0.6489
     0.7580   0.8253   0.9252   0.9900   1.0770   1.2547   1.2957   1.3569
     1.4316   1.4854   1.5465   1.6678   1.8112   1.9080   2.0466   2.1695
     2.3004   2.4347   2.5446   2.7492   2.9599   3.0716   3.2046   3.3585
     3.5004   3.6785   3.7350   3.7859   3.8755   3.9529   4.0345   4.1263
     5.4763   5.5232   5.6884   5.8337   5.8781   5.9735   6.0825   6.1640
     6.2809   6.3688   6.4976   6.5886   7.9142   8.1235   8.2052   8.2727
     8.3584   8.4900   8.5507   8.6261  10.3574  12.6196  13.0293  13.3106
    13.5216  13.8981

          k =-0.1667 0.0963 0.4682 ( 18621 PWs)   bands (ev):

   -66.1626 -66.1326 -66.0578 -65.9724 -36.2583 -36.2478 -36.2070 -36.1966
   -36.0994 -36.0696 -36.0543 -36.0489 -36.0341 -36.0259 -35.9898 -35.9656
   -11.2888  -9.6684  -9.4202  -9.2677  -9.1347  -9.0181  -8.9932  -8.9369
    -8.8986  -8.8548  -8.8273  -8.7674  -1.8223   0.2281   0.5214   0.6681
     0.7396   0.8486   0.9849   1.0581   1.1430   1.2174   1.3062   1.3382
     1.3837   1.4335   1.5387   1.7155   1.8063   1.9173   2.0252   2.2524
     2.3332   2.5753   2.7117   2.7633   2.9283   3.0518   3.1653   3.3404
     3.3991   3.5250   3.7152   3.7774   3.8478   3.8958   3.9930   4.0967
     5.4924   5.5627   5.6742   5.8336   5.8793   5.9553   6.0428   6.1885
     6.2709   6.3203   6.4174   6.5631   8.0407   8.1239   8.1743   8.3555
     8.3790   8.4565   8.5623   8.6013  10.3761  13.2013  13.3472  13.5584
    13.6220  13.8130

          k =-0.1667 0.0963 0.1181 ( 18613 PWs)   bands (ev):

   -66.1625 -66.1326 -66.0578 -65.9724 -36.2583 -36.2478 -36.2070 -36.1966
   -36.0994 -36.0696 -36.0543 -36.0489 -36.0341 -36.0259 -35.9898 -35.9656
   -11.3085  -9.7816  -9.4913  -9.2687  -9.0896  -8.9978  -8.9232  -8.8931
    -8.8589  -8.8377  -8.8191  -8.7384  -1.8234   0.1675   0.3154   0.5529
     0.6723   0.8468   0.9835   1.0291   1.0747   1.2095   1.2423   1.2898
     1.3940   1.4466   1.5113   1.6349   1.7119   1.9050   2.0736   2.1753
     2.3313   2.4754   2.7091   2.8738   3.0268   3.1022   3.3419   3.4004
     3.5410   3.6796   3.7344   3.8137   3.9416   4.0960   4.1436   4.2811
     5.3752   5.5778   5.6413   5.8141   5.9244   6.0138   6.0658   6.1330
     6.2441   6.3013   6.4369   6.4629   7.9644   8.2142   8.2819   8.3826
     8.4226   8.5191   8.5993   8.7220  10.2724  12.2688  12.6730  13.2007
    13.3136  13.3778

          k = 0.5000 0.0963-0.0042 ( 18623 PWs)   bands (ev):

   -66.1625 -66.1326 -66.0578 -65.9724 -36.2583 -36.2479 -36.2071 -36.1967
   -36.0984 -36.0683 -36.0529 -36.0498 -36.0367 -36.0261 -35.9897 -35.9656
   -11.2740  -9.5976  -9.4462  -9.2193  -9.1710  -9.1441  -8.9834  -8.9510
    -8.9111  -8.8345  -8.8144  -8.7469  -1.7877   0.2704   0.5165   0.7032
     0.7512   0.8330   0.9573   1.0402   1.0833   1.1912   1.2309   1.2876
     1.3069   1.4767   1.5380   1.6268   1.8197   1.9844   2.1769   2.3762
     2.4640   2.5580   2.6013   2.7805   3.0190   3.1313   3.1824   3.2496
     3.3884   3.5045   3.6315   3.6954   3.7872   3.9118   3.9752   4.1179
     5.4727   5.5779   5.6684   5.7674   5.9485   5.9888   6.0389   6.1654
     6.3761   6.4088   6.4339   6.5159   8.0332   8.0906   8.1601   8.3378
     8.4054   8.4536   8.5212   8.6041  10.3223  13.1752  13.2699  13.4728
    13.6510  13.7495

     the Fermi energy is     6.4460 ev

!    total energy              =   -1205.41021221 Ry
     Harris-Foulkes estimate   =   -1205.41021221 Ry
     estimated scf accuracy    <          2.6E-11 Ry

     The total energy is the sum of the following terms:

     one-electron contribution =    -663.09694723 Ry
     hartree contribution      =     385.81339980 Ry
     xc contribution           =    -246.58184700 Ry
     ewald contribution        =    -681.53019818 Ry
     smearing contrib. (-TS)   =      -0.01461959 Ry

     convergence has been achieved in  11 iterations

     Forces acting on atoms (Ry/au):

     atom    1 type  1   force =    -0.00003851   -0.00009693   -0.00000048
     atom    2 type  1   force =     0.00001948    0.00000056    0.00002689
     atom    3 type  1   force =    -0.00003644   -0.00001319   -0.00004669
     atom    4 type  1   force =    -0.00005605    0.00003099    0.00000375
     atom    5 type  2   force =    -0.00004694    0.00006089    0.00005250
     atom    6 type  2   force =    -0.00001767   -0.00000706    0.00002741
     atom    7 type  2   force =    -0.00002239   -0.00001202   -0.00001339
     atom    8 type  2   force =    -0.00004087    0.00000821    0.00000615
     atom    9 type  2   force =     0.00005235    0.00004466   -0.00004232
     atom   10 type  2   force =     0.00005663   -0.00005952   -0.00001029
     atom   11 type  2   force =     0.00000118    0.00000248   -0.00001511
     atom   12 type  2   force =     0.00001720   -0.00000893   -0.00001515
     atom   13 type  2   force =     0.00003006    0.00004129   -0.00004763
     atom   14 type  2   force =     0.00003203    0.00003268    0.00001551
     atom   15 type  2   force =     0.00006100   -0.00004640    0.00007848
     atom   16 type  2   force =    -0.00004227   -0.00003612   -0.00003551
     atom   17 type  3   force =     0.00003121    0.00005841    0.00001587

     Total force =     0.000273     Total SCF correction =     0.000017


     entering subroutine stress ...

          total   stress  (Ry/bohr**3)                   (kbar)     P=   16.46
   0.00011101  -0.00001474  -0.00000178         16.33     -2.17     -0.26
  -0.00001474   0.00009253   0.00000070         -2.17     13.61      0.10
  -0.00000178   0.00000070   0.00013223         -0.26      0.10     19.45


     bfgs converged in  84 scf cycles and  83 bfgs steps
     (criteria: energy <  1.0E-05, force <  1.0E-04)

     End of BFGS Geometry Optimization

     Final energy   =   -1205.4102122054 Ry
Begin final coordinates

ATOMIC_POSITIONS (crystal)
Ru      -0.011757322   0.331754707  -0.012451747
Ru       0.001206322   0.667825066  -0.010674621
Ru       0.504884298   0.838587176  -0.012551027
Ru       0.489373872   0.153553048  -0.014432714
Cl       0.734980498   0.171636563   0.753761730
Cl       0.255350312   0.827310018   0.225182907
Cl       0.230706964   0.160819707   0.227982826
Cl       0.753286035   0.827845393   0.752070037
Cl       0.258766199   0.676108012   0.764795451
Cl       0.729233871   0.320893903   0.213853979
Cl       0.748547857   0.677286822   0.219430304
Cl       0.242417860   0.315441067   0.762342113
Cl       0.751358068  -0.000361838   0.233448341
Cl       0.256412146  -0.005981768   0.738256713
Cl       0.215935260   0.497476146   0.224668415
Cl       0.777575681   0.499832007   0.757065696
XXMU       0.071722079   0.059973972   0.187251599
End final coordinates



     Writing output data file a-RuCl3.mu1.rel.1x1x1.010020010.save
 
     init_run     :      6.70s CPU      7.63s WALL (       1 calls)
     electrons    :  13261.28s CPU  14306.56s WALL (      84 calls)
     update_pot   :    307.14s CPU    396.15s WALL (      83 calls)
     forces       :    380.73s CPU    389.77s WALL (      84 calls)
     stress       :   1131.11s CPU   1157.50s WALL (      84 calls)

     Called by init_run:
     wfcinit      :      2.45s CPU      3.10s WALL (       1 calls)
     potinit      :      1.52s CPU      1.54s WALL (       1 calls)

     Called by electrons:
     c_bands      :  10579.47s CPU  11242.93s WALL (    1338 calls)
     sum_band     :   2087.18s CPU   2308.12s WALL (    1338 calls)
     v_of_rho     :    103.87s CPU    122.64s WALL (    1398 calls)
     newd         :    497.01s CPU    587.69s WALL (    1398 calls)
     mix_rho      :     14.17s CPU     18.38s WALL (    1338 calls)

     Called by c_bands:
     init_us_2    :    110.75s CPU    118.44s WALL (   39830 calls)
     cegterg      :  10003.50s CPU  10630.10s WALL (   18732 calls)

     Called by sum_band:
     sum_band:bec :      4.97s CPU      7.01s WALL (   18732 calls)
     addusdens    :    681.95s CPU    806.11s WALL (    1338 calls)

     Called by *egterg:
     h_psi        :   5821.97s CPU   6203.24s WALL (   63128 calls)
     s_psi        :    772.39s CPU    786.27s WALL (   63128 calls)
     g_psi        :     24.38s CPU     24.63s WALL (   44382 calls)
     cdiaghg      :   1462.07s CPU   1467.29s WALL (   61616 calls)

     Called by h_psi:
     h_psi:pot    :   5744.44s CPU   6125.99s WALL (   63128 calls)
     h_psi:calbec :    869.41s CPU    867.42s WALL (   63128 calls)
     vloc_psi     :   4087.70s CPU   4454.30s WALL (   63128 calls)
     add_vuspsi   :    786.82s CPU    803.80s WALL (   63128 calls)

     General routines
     calbec       :   1333.32s CPU   1330.35s WALL (   87740 calls)
     fft          :    101.86s CPU    118.66s WALL (   24311 calls)
     ffts         :      1.94s CPU      2.44s WALL (    2736 calls)
     fftw         :   4189.94s CPU   4618.85s WALL ( 9622708 calls)
     interpolate  :     11.10s CPU     16.69s WALL (    2736 calls)
 
     Parallel routines
     fft_scatter  :   1389.16s CPU   1485.46s WALL ( 9649755 calls)
 
     PWSCF        :     4h12m CPU        4h34m WALL

 
   This run was terminated on:  18:54: 5  21Feb2018            

=------------------------------------------------------------------------------=
   JOB DONE.
=------------------------------------------------------------------------------=
