
     Program PWSCF v.6.0 (svn rev. 13079) starts on 22Feb2018 at 18:28:54 

     This program is part of the open-source Quantum ESPRESSO suite
     for quantum simulation of materials; please cite
         "P. Giannozzi et al., J. Phys.:Condens. Matter 21 395502 (2009);
          URL http://www.quantum-espresso.org", 
     in publications or presentations arising from this work. More details at
     http://www.quantum-espresso.org/quote

     Parallel version (MPI), running on    16 processors
     R & G space division:  proc/nbgrp/npool/nimage =      16
     Waiting for input...
     Reading input from standard input

     Current dimensions of program PWSCF are:
     Max number of different atomic species (ntypx) = 10
     Max number of k-points (npk) =  40000
     Max angular momentum in pseudopotentials (lmaxx) =  3

     Subspace diagonalization in iterative solution of the eigenvalue problem:
     a serial algorithm will be used

 
     Parallelization info
     --------------------
     sticks:   dense  smooth     PW     G-vecs:    dense   smooth      PW
     Min         657     263     74                36802     9311    1405
     Max         658     264     75                36804     9314    1408
     Sum       10525    4215   1195               588847   148993   22511
 


     bravais-lattice index     =          -12
     lattice parameter (alat)  =      11.2934  a.u.
     unit-cell volume          =    2373.1521 (a.u.)^3
     number of atoms/cell      =           17
     number of atomic types    =            3
     number of electrons       =       149.00
     number of Kohn-Sham states=           90
     kinetic-energy cutoff     =      60.0000  Ry
     charge density cutoff     =     600.0000  Ry
     convergence threshold     =      1.0E-08
     mixing beta               =       0.7000
     number of iterations used =            8  plain     mixing
     Exchange-correlation      =  SLA  PW   PBX  PBC ( 1  4  3  4 0 0)
     nstep                     =          500


     celldm(1)=  11.293381  celldm(2)=   1.730531  celldm(3)=   1.006158
     celldm(4)=   0.000000  celldm(5)=  -0.323422  celldm(6)=   0.000000

     crystal axes: (cart. coord. in units of alat)
               a(1) = (   1.000000   0.000000   0.000000 )  
               a(2) = (   0.000000   1.730531   0.000000 )  
               a(3) = (  -0.325414   0.000000   0.952082 )  

     reciprocal axes: (cart. coord. in units 2 pi/alat)
               b(1) = (  1.000000  0.000000  0.341792 )  
               b(2) = (  0.000000  0.577857  0.000000 )  
               b(3) = (  0.000000  0.000000  1.050330 )  


     PseudoPot. # 1 for Ru read from file:
     /home/phys-musr/mert2601/pseudo/Ru.pbe-spn-rrkjus_psl.1.0.0.UPF
     MD5 check sum: f33c46f5b0d54ba5aa393bc1c575518e
     Pseudo is Ultrasoft + core correction, Zval = 16.0
     Generated using "atomic" code by A. Dal Corso  v.5.0.2 svn rev. 9656
     Using radial grid of 1233 points,  6 beta functions with: 
                l(1) =   0
                l(2) =   0
                l(3) =   1
                l(4) =   1
                l(5) =   2
                l(6) =   2
     Q(r) pseudized with 0 coefficients 


     PseudoPot. # 2 for Cl read from file:
     /home/phys-musr/mert2601/pseudo/Cl.pbe-n-rrkjus_psl.1.0.0.UPF
     MD5 check sum: 6c44f4e39484f98bbcc1703ef0502336
     Pseudo is Ultrasoft + core correction, Zval =  7.0
     Generated using "atomic" code by A. Dal Corso  v.5.0.2 svn rev. 9656
     Using radial grid of 1157 points,  6 beta functions with: 
                l(1) =   0
                l(2) =   0
                l(3) =   1
                l(4) =   1
                l(5) =   2
                l(6) =   2
     Q(r) pseudized with 0 coefficients 


     PseudoPot. # 3 for H  read from file:
     /home/phys-musr/mert2601/pseudo/H.pbe-tm-dc.UPF
     MD5 check sum: c7e992f3be35a5ba2152290168345934
     Pseudo is Norm-conserving, Zval =  1.0
     Generated by new atomic code, or converted to UPF format
     Using radial grid of  929 points,  0 beta functions with: 

     atomic species   valence    mass     pseudopotential
        Ru            16.00   101.07000     Ru( 1.00)
        Cl             7.00    35.45000     Cl( 1.00)
        XXMU             1.00     0.11343     H ( 1.00)

     No symmetry found



   Cartesian axes

     site n.     atom                  positions (alat units)
         1           Ru  tau(   1) = (   0.0000000   0.5786896   0.0000000  )
         2           Ru  tau(   2) = (   0.0000000   1.1518415   0.0000000  )
         3           Ru  tau(   3) = (   0.5000000   1.4439552   0.0000000  )
         4           Ru  tau(   4) = (   0.5000000   0.2865760   0.0000000  )
         5           Cl  tau(   5) = (   0.5020681   0.3002471   0.7294850  )
         6           Cl  tau(   6) = (   0.1725183   1.4302840   0.2225967  )
         7           Cl  tau(   7) = (   0.1725183   0.3002471   0.2225967  )
         8           Cl  tau(   8) = (   0.5020681   1.4302840   0.7294850  )
         9           Cl  tau(   9) = (   0.0020681   1.1655127   0.7294850  )
        10           Cl  tau(  10) = (   0.6725183   0.5650184   0.2225967  )
        11           Cl  tau(  11) = (   0.6725183   1.1655127   0.2225967  )
        12           Cl  tau(  12) = (   0.0020681   0.5650184   0.7294850  )
        13           Cl  tau(  13) = (   0.6524587   0.0000000   0.2274523  )
        14           Cl  tau(  14) = (   0.0221277   0.0000000   0.7246293  )
        15           Cl  tau(  15) = (   0.1524587   0.8652656   0.2274523  )
        16           Cl  tau(  16) = (   0.5221277   0.8652656   0.7246293  )
        17           XXMU  tau(  17) = (  -0.0952481   0.1730531   0.5712490  )

     number of k points=    14  gaussian smearing, width (Ry)=  0.0100
                       cart. coord. in units 2pi/alat
        k(    1) = (   0.1666667   0.0963095   0.2320203), wk =   0.1481481
        k(    2) = (   0.1666667   0.0963095  -0.4681998), wk =   0.1481481
        k(    3) = (   0.1666667   0.0963095  -0.1180897), wk =   0.1481481
        k(    4) = (   0.1666667  -0.2889286   0.2320203), wk =   0.1481481
        k(    5) = (   0.1666667  -0.2889286  -0.4681998), wk =   0.1481481
        k(    6) = (   0.1666667  -0.2889286  -0.1180897), wk =   0.1481481
        k(    7) = (  -0.5000000   0.0963095   0.0041592), wk =   0.1481481
        k(    8) = (  -0.5000000   0.0963095  -0.6960609), wk =   0.1481481
        k(    9) = (  -0.5000000  -0.2889286   0.0041592), wk =   0.1481481
        k(   10) = (  -0.5000000  -0.2889286  -0.6960609), wk =   0.0740741
        k(   11) = (  -0.1666667   0.0963095  -0.2320203), wk =   0.1481481
        k(   12) = (  -0.1666667   0.0963095   0.4681998), wk =   0.1481481
        k(   13) = (  -0.1666667   0.0963095   0.1180897), wk =   0.1481481
        k(   14) = (   0.5000000   0.0963095  -0.0041592), wk =   0.1481481

     Dense  grid:   588847 G-vectors     FFT dimensions: (  90, 160,  90)

     Smooth grid:   148993 G-vectors     FFT dimensions: (  60, 100,  60)

     Estimated max dynamical RAM per process >      67.82Mb

     Estimated total allocated dynamical RAM >    1085.10Mb

     Initial potential from superposition of free atoms

     starting charge  148.09734, renormalised to  149.00000
     Starting wfc are   89 randomized atomic wfcs +    1 random wfc

     total cpu time spent up to now is        9.5 secs

     Self-consistent Calculation

     iteration #  1     ecut=    60.00 Ry     beta=0.70
     Davidson diagonalization with overlap
     ethr =  1.00E-02,  avg # of iterations =  4.6

     total cpu time spent up to now is       22.3 secs

     total energy              =   -1193.14385011 Ry
     Harris-Foulkes estimate   =   -1206.44286876 Ry
     estimated scf accuracy    <      15.60192778 Ry

     iteration #  2     ecut=    60.00 Ry     beta=0.70
     Davidson diagonalization with overlap
     ethr =  1.00E-02,  avg # of iterations =  5.0

     total cpu time spent up to now is       40.1 secs

     total energy              =   -1158.76666875 Ry
     Harris-Foulkes estimate   =   -1265.68150564 Ry
     estimated scf accuracy    <     661.96023310 Ry

     iteration #  3     ecut=    60.00 Ry     beta=0.70
     Davidson diagonalization with overlap
     ethr =  1.00E-02,  avg # of iterations =  7.8

     total cpu time spent up to now is       61.0 secs

     total energy              =   -1202.23836346 Ry
     Harris-Foulkes estimate   =   -1211.55197319 Ry
     estimated scf accuracy    <      47.46378941 Ry

     iteration #  4     ecut=    60.00 Ry     beta=0.70
     Davidson diagonalization with overlap
     ethr =  1.00E-02,  avg # of iterations =  2.9

     total cpu time spent up to now is       71.0 secs

     total energy              =   -1203.97574360 Ry
     Harris-Foulkes estimate   =   -1207.51564779 Ry
     estimated scf accuracy    <      29.25157625 Ry

     iteration #  5     ecut=    60.00 Ry     beta=0.70
     Davidson diagonalization with overlap
     ethr =  1.00E-02,  avg # of iterations =  1.1

     total cpu time spent up to now is       79.4 secs

     total energy              =   -1205.02833732 Ry
     Harris-Foulkes estimate   =   -1205.73353065 Ry
     estimated scf accuracy    <       4.30655860 Ry

     iteration #  6     ecut=    60.00 Ry     beta=0.70
     Davidson diagonalization with overlap
     ethr =  2.89E-03,  avg # of iterations =  2.0

     total cpu time spent up to now is       88.4 secs

     total energy              =   -1205.05747647 Ry
     Harris-Foulkes estimate   =   -1205.79834000 Ry
     estimated scf accuracy    <       7.01442549 Ry

     iteration #  7     ecut=    60.00 Ry     beta=0.70
     Davidson diagonalization with overlap
     ethr =  2.89E-03,  avg # of iterations =  1.0

     total cpu time spent up to now is       96.7 secs

     total energy              =   -1205.30198509 Ry
     Harris-Foulkes estimate   =   -1205.37370030 Ry
     estimated scf accuracy    <       0.55870864 Ry

     iteration #  8     ecut=    60.00 Ry     beta=0.70
     Davidson diagonalization with overlap
     ethr =  3.75E-04,  avg # of iterations =  4.3

     total cpu time spent up to now is      107.0 secs

     total energy              =   -1205.31942706 Ry
     Harris-Foulkes estimate   =   -1205.33044201 Ry
     estimated scf accuracy    <       0.08559150 Ry

     iteration #  9     ecut=    60.00 Ry     beta=0.70
     Davidson diagonalization with overlap
     ethr =  5.74E-05,  avg # of iterations =  6.6

     total cpu time spent up to now is      119.6 secs

     total energy              =   -1205.29688947 Ry
     Harris-Foulkes estimate   =   -1205.35233825 Ry
     estimated scf accuracy    <       0.82932995 Ry

     iteration # 10     ecut=    60.00 Ry     beta=0.70
     Davidson diagonalization with overlap
     ethr =  5.74E-05,  avg # of iterations =  2.0

     total cpu time spent up to now is      128.9 secs

     total energy              =   -1205.31874927 Ry
     Harris-Foulkes estimate   =   -1205.32828040 Ry
     estimated scf accuracy    <       0.12343114 Ry

     iteration # 11     ecut=    60.00 Ry     beta=0.70
     Davidson diagonalization with overlap
     ethr =  5.74E-05,  avg # of iterations =  1.0

     total cpu time spent up to now is      137.2 secs

     total energy              =   -1205.32303974 Ry
     Harris-Foulkes estimate   =   -1205.32433154 Ry
     estimated scf accuracy    <       0.01220175 Ry

     iteration # 12     ecut=    60.00 Ry     beta=0.70
     Davidson diagonalization with overlap
     ethr =  8.19E-06,  avg # of iterations =  5.1

     total cpu time spent up to now is      148.1 secs

     total energy              =   -1205.32343659 Ry
     Harris-Foulkes estimate   =   -1205.32405506 Ry
     estimated scf accuracy    <       0.00388076 Ry

     iteration # 13     ecut=    60.00 Ry     beta=0.70
     Davidson diagonalization with overlap
     ethr =  2.60E-06,  avg # of iterations =  3.0

     total cpu time spent up to now is      157.7 secs

     total energy              =   -1205.32364821 Ry
     Harris-Foulkes estimate   =   -1205.32375225 Ry
     estimated scf accuracy    <       0.00141543 Ry

     iteration # 14     ecut=    60.00 Ry     beta=0.70
     Davidson diagonalization with overlap
     ethr =  9.50E-07,  avg # of iterations =  1.0

     total cpu time spent up to now is      166.1 secs

     total energy              =   -1205.32368030 Ry
     Harris-Foulkes estimate   =   -1205.32371130 Ry
     estimated scf accuracy    <       0.00019981 Ry

     iteration # 15     ecut=    60.00 Ry     beta=0.70
     Davidson diagonalization with overlap
     ethr =  1.34E-07,  avg # of iterations =  1.1

     total cpu time spent up to now is      174.5 secs

     total energy              =   -1205.32369444 Ry
     Harris-Foulkes estimate   =   -1205.32370914 Ry
     estimated scf accuracy    <       0.00015697 Ry

     iteration # 16     ecut=    60.00 Ry     beta=0.70
     Davidson diagonalization with overlap
     ethr =  1.05E-07,  avg # of iterations =  1.0

     total cpu time spent up to now is      182.8 secs

     total energy              =   -1205.32370135 Ry
     Harris-Foulkes estimate   =   -1205.32370251 Ry
     estimated scf accuracy    <       0.00000455 Ry

     iteration # 17     ecut=    60.00 Ry     beta=0.70
     Davidson diagonalization with overlap
     ethr =  3.06E-09,  avg # of iterations =  2.0

     total cpu time spent up to now is      192.1 secs

     total energy              =   -1205.32370162 Ry
     Harris-Foulkes estimate   =   -1205.32370262 Ry
     estimated scf accuracy    <       0.00000933 Ry

     iteration # 18     ecut=    60.00 Ry     beta=0.70
     Davidson diagonalization with overlap
     ethr =  3.06E-09,  avg # of iterations =  1.1

     total cpu time spent up to now is      200.6 secs

     total energy              =   -1205.32370214 Ry
     Harris-Foulkes estimate   =   -1205.32370231 Ry
     estimated scf accuracy    <       0.00000199 Ry

     iteration # 19     ecut=    60.00 Ry     beta=0.70
     Davidson diagonalization with overlap
     ethr =  1.33E-09,  avg # of iterations =  1.0

     total cpu time spent up to now is      208.9 secs

     total energy              =   -1205.32370216 Ry
     Harris-Foulkes estimate   =   -1205.32370226 Ry
     estimated scf accuracy    <       0.00000049 Ry

     iteration # 20     ecut=    60.00 Ry     beta=0.70
     Davidson diagonalization with overlap
     ethr =  3.28E-10,  avg # of iterations =  1.8

     total cpu time spent up to now is      217.7 secs

     total energy              =   -1205.32370210 Ry
     Harris-Foulkes estimate   =   -1205.32370238 Ry
     estimated scf accuracy    <       0.00000470 Ry

     iteration # 21     ecut=    60.00 Ry     beta=0.70
     Davidson diagonalization with overlap
     ethr =  3.28E-10,  avg # of iterations =  1.1

     total cpu time spent up to now is      226.0 secs

     End of self-consistent calculation

          k = 0.1667 0.0963 0.2320 ( 18618 PWs)   bands (ev):

   -66.1945 -66.1559 -66.1029 -66.0792 -36.2194 -36.2074 -36.1876 -36.1855
   -36.1663 -36.1556 -36.1469 -36.1435 -36.1342 -36.0922 -36.0850 -36.0835
   -10.7315  -9.7281  -9.5209  -9.1818  -9.0414  -8.9877  -8.9701  -8.9052
    -8.8945  -8.8715  -8.8281  -8.7998  -1.4239   0.3542   0.5888   0.7186
     0.7901   0.8756   0.9088   1.0290   1.1164   1.2304   1.3108   1.3951
     1.4249   1.4948   1.5974   1.6814   1.8013   1.9717   2.1295   2.2712
     2.3526   2.4526   2.5414   2.8212   2.9490   3.1217   3.2722   3.4530
     3.5520   3.6310   3.6502   3.8090   3.8658   3.9157   4.0085   4.0656
     5.5096   5.5580   5.6119   5.7796   5.8732   5.9324   6.0637   6.1127
     6.3015   6.3296   6.4041   6.4762   6.8685   8.0974   8.1416   8.2412
     8.2863   8.4234   8.4935   8.5722   9.7189  12.7144  13.2416  13.3092
    13.4170  13.8170

          k = 0.1667 0.0963-0.4682 ( 18621 PWs)   bands (ev):

   -66.1945 -66.1559 -66.1029 -66.0792 -36.2194 -36.2073 -36.1876 -36.1856
   -36.1663 -36.1556 -36.1469 -36.1435 -36.1342 -36.0922 -36.0850 -36.0835
   -10.7137  -9.6348  -9.4259  -9.1658  -9.1210  -9.0318  -9.0092  -8.9490
    -8.9262  -8.8811  -8.8493  -8.8004  -1.4228   0.3387   0.6037   0.7157
     0.7914   0.8892   0.9917   1.1035   1.1834   1.2959   1.3030   1.3604
     1.4295   1.4444   1.5409   1.7327   1.7949   1.9519   2.0598   2.3121
     2.4456   2.5749   2.6879   2.8298   2.9917   3.0725   3.2660   3.3180
     3.4648   3.5748   3.6975   3.7771   3.8193   3.8686   3.9322   4.0407
     5.5294   5.5744   5.6636   5.7810   5.8863   5.9166   6.0003   6.1209
     6.2289   6.2976   6.3419   6.4331   7.0058   8.1318   8.2311   8.3026
     8.3126   8.4232   8.4438   8.4948   9.5915  13.3822  13.5484  13.5847
    13.7558  13.7905

          k = 0.1667 0.0963-0.1181 ( 18613 PWs)   bands (ev):

   -66.1945 -66.1559 -66.1029 -66.0792 -36.2194 -36.2074 -36.1876 -36.1855
   -36.1663 -36.1556 -36.1469 -36.1435 -36.1342 -36.0922 -36.0850 -36.0835
   -10.7437  -9.7541  -9.5397  -9.1351  -9.0525  -8.9739  -8.9599  -8.9133
    -8.8715  -8.8526  -8.8255  -8.8127  -1.4963   0.2416   0.4619   0.6759
     0.8486   0.9109   1.0114   1.0687   1.1157   1.1245   1.2042   1.2926
     1.3953   1.4459   1.5343   1.6258   1.7663   1.9863   2.0627   2.2528
     2.3718   2.6131   2.7726   2.9317   2.9873   3.2031   3.2789   3.4050
     3.5724   3.7027   3.7612   3.8781   3.9269   4.0125   4.1314   4.2257
     5.3869   5.5668   5.6139   5.7664   5.9068   5.9922   6.0309   6.1158
     6.2111   6.2540   6.3134   6.3413   7.0371   8.2070   8.2486   8.3039
     8.4086   8.4445   8.4855   8.6140   9.3780  12.3571  12.9324  13.1990
    13.2606  13.4178

          k = 0.1667-0.2889 0.2320 ( 18610 PWs)   bands (ev):

   -66.1945 -66.1559 -66.1029 -66.0792 -36.2194 -36.2073 -36.1876 -36.1856
   -36.1664 -36.1557 -36.1468 -36.1435 -36.1341 -36.0922 -36.0851 -36.0834
   -10.7295  -9.7154  -9.5700  -9.1126  -9.0269  -9.0056  -8.9665  -8.9364
    -8.9050  -8.8707  -8.8256  -8.7958  -1.4235   0.3318   0.6049   0.6906
     0.7859   0.8205   0.9509   1.0445   1.0951   1.2039   1.2848   1.3639
     1.3904   1.4985   1.5908   1.6430   1.9110   1.9867   2.1763   2.3165
     2.4530   2.6015   2.7319   2.8774   2.9167   2.9735   3.2364   3.3582
     3.4563   3.5993   3.6643   3.7488   3.7830   3.8793   3.9854   4.0646
     5.5046   5.6174   5.6616   5.7115   5.9587   6.0284   6.0899   6.1751
     6.2758   6.3244   6.3692   6.3811   6.8454   8.0457   8.1234   8.2025
     8.3026   8.3425   8.5560   8.6067   9.7431  13.1903  13.3235  13.6206
    13.7757  13.8180

          k = 0.1667-0.2889-0.4682 ( 18628 PWs)   bands (ev):

   -66.1945 -66.1559 -66.1029 -66.0792 -36.2194 -36.2073 -36.1876 -36.1856
   -36.1664 -36.1557 -36.1468 -36.1435 -36.1342 -36.0922 -36.0851 -36.0834
   -10.7125  -9.6055  -9.4912  -9.1541  -9.0899  -9.0429  -8.9770  -8.9532
    -8.9295  -8.8819  -8.8750  -8.7947  -1.4238   0.3112   0.5447   0.7265
     0.7965   0.9209   1.0619   1.0996   1.1437   1.1713   1.2481   1.2991
     1.4047   1.4765   1.5946   1.7149   1.9674   2.0288   2.2024   2.3512
     2.4345   2.6617   2.7575   2.8923   2.9499   3.0234   3.1749   3.2244
     3.4334   3.5699   3.5930   3.6736   3.7787   3.9062   3.9543   3.9816
     5.4728   5.5950   5.7543   5.7918   5.9481   5.9950   6.0504   6.0972
     6.2228   6.2908   6.3616   6.3751   6.9642   8.1057   8.1562   8.3062
     8.3436   8.3811   8.4699   8.5053   9.5895  13.3455  13.4309  13.6636
    13.7820  13.9963

          k = 0.1667-0.2889-0.1181 ( 18626 PWs)   bands (ev):

   -66.1945 -66.1559 -66.1029 -66.0792 -36.2194 -36.2073 -36.1876 -36.1856
   -36.1664 -36.1557 -36.1468 -36.1435 -36.1342 -36.0922 -36.0851 -36.0835
   -10.7412  -9.7496  -9.5786  -9.0857  -9.0065  -8.9736  -8.9586  -8.9354
    -8.9112  -8.8476  -8.8304  -8.8154  -1.4967   0.2316   0.5234   0.5994
     0.7831   0.8296   0.9666   1.0446   1.1368   1.1926   1.2307   1.2793
     1.3808   1.4851   1.5481   1.6665   1.8875   1.9297   2.1279   2.2947
     2.5210   2.7201   2.7676   2.8308   2.9583   3.1481   3.2783   3.4295
     3.4811   3.6644   3.7153   3.7559   3.8929   3.9674   4.1461   4.2446
     5.4209   5.5967   5.7439   5.8142   5.8954   6.0171   6.0490   6.0741
     6.2069   6.2439   6.2758   6.2961   7.0416   8.1787   8.2141   8.3044
     8.3398   8.4433   8.5166   8.6360   9.3929  12.8395  12.8558  13.2923
    13.3738  13.5536

          k =-0.5000 0.0963 0.0042 ( 18623 PWs)   bands (ev):

   -66.1945 -66.1559 -66.1029 -66.0792 -36.2193 -36.2079 -36.1861 -36.1853
   -36.1667 -36.1541 -36.1499 -36.1442 -36.1313 -36.0925 -36.0864 -36.0835
   -10.7091  -9.5157  -9.4101  -9.2380  -9.2287  -9.0539  -9.0023  -8.9656
    -8.9104  -8.8618  -8.8218  -8.7997  -1.4167   0.3562   0.6102   0.7043
     0.7930   0.8580   0.9855   1.0457   1.1592   1.2009   1.2482   1.3340
     1.3878   1.4423   1.5652   1.8271   1.8912   2.0019   2.2193   2.3630
     2.4646   2.5385   2.7060   2.8730   3.0030   3.0785   3.1943   3.3466
     3.4064   3.5387   3.5854   3.7055   3.8055   3.9021   3.9466   4.0602
     5.4796   5.5608   5.6434   5.7771   5.9032   5.9297   6.0635   6.1313
     6.3048   6.3496   6.3957   6.4299   6.9868   8.1176   8.2171   8.2931
     8.3342   8.3455   8.4413   8.5287   9.5822  13.3774  13.4709  13.6310
    13.7271  13.7550

          k =-0.5000 0.0963-0.6961 ( 18660 PWs)   bands (ev):

   -66.1945 -66.1559 -66.1029 -66.0792 -36.2193 -36.2079 -36.1861 -36.1854
   -36.1667 -36.1541 -36.1499 -36.1442 -36.1313 -36.0926 -36.0864 -36.0835
   -10.7053  -9.4375  -9.3424  -9.2055  -9.1710  -9.0818  -9.0272  -8.9889
    -8.9415  -8.9191  -8.8892  -8.8307  -1.5044   0.2295   0.4398   0.7147
     0.7773   0.8363   0.9340   1.0192   1.0535   1.1362   1.2384   1.3035
     1.6122   1.6784   1.7692   1.8518   1.9628   2.0863   2.1946   2.3765
     2.4672   2.5797   2.8565   2.9153   3.0709   3.1227   3.1781   3.2229
     3.3679   3.5710   3.6954   3.7804   3.8845   3.9009   3.9988   4.0298
     5.3663   5.5160   5.6510   5.6869   5.8333   5.9542   5.9894   6.0145
     6.2706   6.3185   6.4249   6.4578   7.0668   8.1092   8.1275   8.4232
     8.4305   8.4833   8.5185   8.6157   9.2940  12.7312  12.7856  13.0866
    13.2809  13.4777

          k =-0.5000-0.2889 0.0042 ( 18636 PWs)   bands (ev):

   -66.1945 -66.1559 -66.1029 -66.0792 -36.2193 -36.2079 -36.1863 -36.1852
   -36.1667 -36.1543 -36.1499 -36.1441 -36.1312 -36.0924 -36.0866 -36.0834
   -10.7086  -9.4974  -9.3957  -9.3109  -9.2168  -9.0524  -8.9891  -8.9516
    -8.9246  -8.8607  -8.8099  -8.7981  -1.4222   0.2854   0.4762   0.7171
     0.7709   0.9065   0.9986   1.0761   1.1409   1.1984   1.2301   1.3149
     1.5465   1.6140   1.7477   1.9089   1.9878   2.1437   2.1823   2.2620
     2.2828   2.3880   2.5415   2.6058   2.9052   3.0495   3.1975   3.3811
     3.4443   3.6098   3.6355   3.7132   3.8096   3.9456   4.1229   4.1821
     5.3572   5.4558   5.5490   5.6814   5.9304   5.9823   6.1976   6.2734
     6.2928   6.3237   6.3687   6.4112   6.9534   8.0754   8.1534   8.2868
     8.3529   8.4097   8.4575   8.4758   9.5816  13.3087  13.4221  13.5779
    13.6859  13.9614

          k =-0.5000-0.2889-0.6961 ( 18708 PWs)   bands (ev):

   -66.1945 -66.1559 -66.1029 -66.0792 -36.2194 -36.2079 -36.1863 -36.1853
   -36.1668 -36.1543 -36.1499 -36.1441 -36.1313 -36.0925 -36.0867 -36.0835
   -10.7048  -9.4152  -9.3142  -9.2575  -9.2056  -9.0852  -9.0354  -8.9749
    -8.9449  -8.9102  -8.8606  -8.8302  -1.5130   0.1466   0.2675   0.6748
     0.8520   0.9087   1.0105   1.0731   1.1467   1.2263   1.2849   1.3478
     1.6239   1.6763   1.8010   1.9597   2.0318   2.0570   2.2526   2.2708
     2.4035   2.5117   2.5540   2.5759   3.0208   3.0747   3.1762   3.2915
     3.3724   3.5932   3.8025   3.8816   3.8966   4.0381   4.0996   4.1258
     5.2983   5.4569   5.5577   5.6506   5.8525   5.9494   5.9924   6.1923
     6.2179   6.2263   6.4297   6.4591   7.1094   8.0971   8.1371   8.3235
     8.4106   8.4524   8.5495   8.6772   9.2829  12.4904  12.5937  12.8305
    13.3243  14.1402

          k =-0.1667 0.0963-0.2320 ( 18618 PWs)   bands (ev):

   -66.1945 -66.1559 -66.1029 -66.0792 -36.2194 -36.2073 -36.1876 -36.1856
   -36.1663 -36.1556 -36.1466 -36.1437 -36.1342 -36.0922 -36.0850 -36.0834
   -10.7313  -9.7329  -9.5166  -9.1670  -9.0562  -8.9882  -8.9684  -8.9243
    -8.8789  -8.8700  -8.8342  -8.7927  -1.4211   0.3320   0.5894   0.7212
     0.7986   0.8555   0.9371   1.0122   1.1471   1.2271   1.3025   1.3849
     1.4143   1.4885   1.5866   1.6722   1.8386   2.0248   2.1285   2.2554
     2.3659   2.4792   2.5418   2.7608   2.9447   3.0895   3.2843   3.4467
     3.5436   3.6197   3.6477   3.7973   3.8787   3.9250   4.0112   4.0993
     5.4851   5.5381   5.6214   5.8164   5.8609   5.9442   6.0597   6.1207
     6.2937   6.3367   6.4045   6.4825   6.8546   8.0921   8.1485   8.2331
     8.2946   8.4370   8.4788   8.5815   9.7057  12.6893  13.2036  13.3219
    13.3987  14.0338

          k =-0.1667 0.0963 0.4682 ( 18621 PWs)   bands (ev):

   -66.1945 -66.1559 -66.1029 -66.0792 -36.2194 -36.2073 -36.1876 -36.1856
   -36.1664 -36.1556 -36.1467 -36.1437 -36.1342 -36.0922 -36.0850 -36.0835
   -10.7137  -9.6357  -9.4259  -9.1581  -9.1256  -9.0404  -8.9920  -8.9536
    -8.9311  -8.8898  -8.8474  -8.7950  -1.4206   0.3260   0.6076   0.6901
     0.7944   0.8951   1.0027   1.1087   1.1932   1.2840   1.3250   1.3666
     1.4097   1.4367   1.5452   1.7275   1.7801   1.9965   2.0720   2.3578
     2.4127   2.5683   2.7213   2.7635   2.9755   3.0855   3.2391   3.3258
     3.4253   3.6314   3.6745   3.7324   3.8204   3.8811   3.9584   4.0696
     5.4759   5.5767   5.6844   5.8317   5.8693   5.9275   6.0002   6.1165
     6.2388   6.2994   6.3404   6.4387   6.9766   8.1129   8.2402   8.2985
     8.3290   8.3919   8.4509   8.5201   9.5894  13.3370  13.5368  13.5848
    13.7482  13.8194

          k =-0.1667 0.0963 0.1181 ( 18613 PWs)   bands (ev):

   -66.1945 -66.1559 -66.1029 -66.0792 -36.2194 -36.2073 -36.1876 -36.1856
   -36.1663 -36.1556 -36.1466 -36.1437 -36.1342 -36.0922 -36.0850 -36.0834
   -10.7436  -9.7552  -9.5393  -9.1250  -9.0587  -8.9764  -8.9617  -8.9124
    -8.8845  -8.8395  -8.8251  -8.8129  -1.4951   0.2342   0.4659   0.6957
     0.8169   0.9254   1.0070   1.0477   1.0985   1.1658   1.1902   1.2819
     1.3992   1.4628   1.5257   1.6074   1.7884   1.9895   2.0963   2.2541
     2.4506   2.5563   2.7567   2.8676   2.9939   3.2064   3.2693   3.4064
     3.5925   3.7142   3.7399   3.8537   3.9285   4.0466   4.1500   4.2094
     5.3705   5.5716   5.6282   5.7735   5.9163   6.0075   6.0263   6.1057
     6.2121   6.2427   6.3143   6.3473   7.0237   8.2057   8.2416   8.3231
     8.4058   8.4429   8.4868   8.6062   9.3772  12.3583  12.9274  13.1767
    13.2597  13.4551

          k = 0.5000 0.0963-0.0042 ( 18623 PWs)   bands (ev):

   -66.1945 -66.1559 -66.1029 -66.0792 -36.2193 -36.2079 -36.1861 -36.1854
   -36.1667 -36.1541 -36.1499 -36.1442 -36.1312 -36.0926 -36.0864 -36.0834
   -10.7092  -9.5166  -9.3976  -9.2836  -9.1951  -9.0604  -8.9900  -8.9632
    -8.9126  -8.8700  -8.8224  -8.7964  -1.4164   0.3586   0.5951   0.7086
     0.7714   0.8820   0.9812   1.0618   1.1790   1.1937   1.2340   1.3170
     1.4292   1.4461   1.5362   1.8089   1.9125   2.0068   2.2177   2.3245
     2.4703   2.5488   2.7136   2.8567   3.0325   3.0672   3.2015   3.3587
     3.4152   3.5196   3.5915   3.6900   3.8116   3.8743   3.9694   4.0667
     5.4617   5.5758   5.6569   5.7338   5.8988   5.9343   6.0829   6.1348
     6.3075   6.3596   6.3988   6.4304   6.9719   8.1231   8.2033   8.2976
     8.3126   8.3826   8.4396   8.5280   9.5767  13.3639  13.4455  13.5962
    13.7155  13.8033

     the Fermi energy is     6.3737 ev

!    total energy              =   -1205.32370223 Ry
     Harris-Foulkes estimate   =   -1205.32370224 Ry
     estimated scf accuracy    <          6.7E-09 Ry

     The total energy is the sum of the following terms:

     one-electron contribution =    -656.31242258 Ry
     hartree contribution      =     382.39431604 Ry
     xc contribution           =    -246.44520327 Ry
     ewald contribution        =    -684.94316794 Ry
     smearing contrib. (-TS)   =      -0.01722447 Ry

     convergence has been achieved in  21 iterations

     Forces acting on atoms (Ry/au):

     atom    1 type  1   force =    -0.00189052    0.00528412    0.00220709
     atom    2 type  1   force =    -0.00074236   -0.00241543    0.00293091
     atom    3 type  1   force =     0.01033444   -0.05440431    0.03595485
     atom    4 type  1   force =     0.01692858    0.00249971    0.02570469
     atom    5 type  2   force =     0.00289313    0.00413605   -0.00053299
     atom    6 type  2   force =     0.00262032   -0.00218839   -0.00216623
     atom    7 type  2   force =    -0.00206734    0.00145157   -0.00121318
     atom    8 type  2   force =    -0.00161169   -0.00068491    0.00033345
     atom    9 type  2   force =    -0.00236498    0.00141601    0.00295616
     atom   10 type  2   force =     0.00054500   -0.00467180   -0.00615181
     atom   11 type  2   force =     0.00207697    0.01336948   -0.01299203
     atom   12 type  2   force =    -0.00456575   -0.01869194   -0.00408642
     atom   13 type  2   force =    -0.00272324    0.00580701   -0.00292701
     atom   14 type  2   force =    -0.03852367    0.09883653   -0.06981919
     atom   15 type  2   force =    -0.00036991   -0.00068127   -0.00265709
     atom   16 type  2   force =     0.00173840   -0.00061799    0.00357565
     atom   17 type  3   force =     0.01772262   -0.04844443    0.02888313

     Total force =     0.161024     Total SCF correction =     0.000227


     entering subroutine stress ...

          total   stress  (Ry/bohr**3)                   (kbar)     P=   10.69
   0.00007672   0.00000740   0.00001630         11.29      1.09      2.40
   0.00000740   0.00002742   0.00000873          1.09      4.03      1.28
   0.00001630   0.00000873   0.00011384          2.40      1.28     16.75


     BFGS Geometry Optimization

     number of scf cycles    =   1
     number of bfgs steps    =   0

     energy   new            =   -1205.3237022344 Ry

     new trust radius        =       0.1269939029 bohr
     new conv_thr            =       0.0000000100 Ry


ATOMIC_POSITIONS (crystal)
Ru      -0.000100604   0.334670376   0.000205269
Ru       0.000022969   0.665476408   0.000272587
Ru       0.502003254   0.831616252   0.003343946
Ru       0.502276929   0.165727905   0.002390640
Cl       0.751640048   0.173711633   0.766150429
Cl       0.248766462   0.826388025   0.233598532
Cl       0.248380226   0.173574274   0.233687169
Cl       0.751267381   0.826464954   0.766231012
Cl       0.251280054   0.673572454   0.766474935
Cl       0.748462075   0.326260954   0.233227857
Cl       0.748390709   0.674184087   0.232591689
Cl       0.250872040   0.325543575   0.765819946
Cl       0.729870279   0.000297132   0.238627776
Cl       0.264275766   0.005057246   0.754606533
Cl       0.230086829   0.499965141   0.238652880
Cl       0.770062147   0.499968379   0.761432550
XXMU       0.102443434   0.097521206   0.602686248



     Writing output data file a-RuCl3.mu1.rel.1x1x1.100100600.save
     NEW-OLD atomic charge density approx. for the potential

     total cpu time spent up to now is      252.7 secs

     Self-consistent Calculation

     iteration #  1     ecut=    60.00 Ry     beta=0.70
     Davidson diagonalization with overlap
     ethr =  1.00E-06,  avg # of iterations = 11.4

     total cpu time spent up to now is      276.9 secs

     total energy              =   -1205.34390977 Ry
     Harris-Foulkes estimate   =   -1205.34733840 Ry
     estimated scf accuracy    <       0.00638888 Ry

     iteration #  2     ecut=    60.00 Ry     beta=0.70
     Davidson diagonalization with overlap
     ethr =  4.29E-06,  avg # of iterations =  6.2

     total cpu time spent up to now is      291.8 secs

     total energy              =   -1205.32659184 Ry
     Harris-Foulkes estimate   =   -1205.36489876 Ry
     estimated scf accuracy    <       0.55160662 Ry

     iteration #  3     ecut=    60.00 Ry     beta=0.70
     Davidson diagonalization with overlap
     ethr =  4.29E-06,  avg # of iterations =  7.1

     total cpu time spent up to now is      306.6 secs

     total energy              =   -1205.33670958 Ry
     Harris-Foulkes estimate   =   -1205.35121565 Ry
     estimated scf accuracy    <       0.20796832 Ry

     iteration #  4     ecut=    60.00 Ry     beta=0.70
     Davidson diagonalization with overlap
     ethr =  4.29E-06,  avg # of iterations =  6.3

     total cpu time spent up to now is      319.5 secs

     total energy              =   -1205.33936616 Ry
     Harris-Foulkes estimate   =   -1205.35167880 Ry
     estimated scf accuracy    <       0.15141779 Ry

     iteration #  5     ecut=    60.00 Ry     beta=0.70
     Davidson diagonalization with overlap
     ethr =  4.29E-06,  avg # of iterations =  4.0

     total cpu time spent up to now is      330.3 secs

     total energy              =   -1205.34141885 Ry
     Harris-Foulkes estimate   =   -1205.35050796 Ry
     estimated scf accuracy    <       0.09987120 Ry

     iteration #  6     ecut=    60.00 Ry     beta=0.70
     Davidson diagonalization with overlap
     ethr =  4.29E-06,  avg # of iterations =  2.4

     total cpu time spent up to now is      339.8 secs

     total energy              =   -1205.34581455 Ry
     Harris-Foulkes estimate   =   -1205.34657571 Ry
     estimated scf accuracy    <       0.00725192 Ry

     iteration #  7     ecut=    60.00 Ry     beta=0.70
     Davidson diagonalization with overlap
     ethr =  4.29E-06,  avg # of iterations =  1.0

     total cpu time spent up to now is      348.2 secs

     total energy              =   -1205.34615021 Ry
     Harris-Foulkes estimate   =   -1205.34629656 Ry
     estimated scf accuracy    <       0.00070022 Ry

     iteration #  8     ecut=    60.00 Ry     beta=0.70
     Davidson diagonalization with overlap
     ethr =  4.70E-07,  avg # of iterations =  2.0

     total cpu time spent up to now is      357.2 secs

     total energy              =   -1205.34621988 Ry
     Harris-Foulkes estimate   =   -1205.34623591 Ry
     estimated scf accuracy    <       0.00009896 Ry

     iteration #  9     ecut=    60.00 Ry     beta=0.70
     Davidson diagonalization with overlap
     ethr =  6.64E-08,  avg # of iterations =  1.0

     total cpu time spent up to now is      365.6 secs

     total energy              =   -1205.34622647 Ry
     Harris-Foulkes estimate   =   -1205.34622916 Ry
     estimated scf accuracy    <       0.00001821 Ry

     iteration # 10     ecut=    60.00 Ry     beta=0.70
     Davidson diagonalization with overlap
     ethr =  1.22E-08,  avg # of iterations =  2.0

     total cpu time spent up to now is      374.6 secs

     total energy              =   -1205.34622738 Ry
     Harris-Foulkes estimate   =   -1205.34622857 Ry
     estimated scf accuracy    <       0.00000379 Ry

     iteration # 11     ecut=    60.00 Ry     beta=0.70
     Davidson diagonalization with overlap
     ethr =  2.54E-09,  avg # of iterations =  2.0

     total cpu time spent up to now is      383.8 secs

     total energy              =   -1205.34622798 Ry
     Harris-Foulkes estimate   =   -1205.34622826 Ry
     estimated scf accuracy    <       0.00000119 Ry

     iteration # 12     ecut=    60.00 Ry     beta=0.70
     Davidson diagonalization with overlap
     ethr =  8.00E-10,  avg # of iterations =  2.0

     total cpu time spent up to now is      393.0 secs

     total energy              =   -1205.34622811 Ry
     Harris-Foulkes estimate   =   -1205.34622814 Ry
     estimated scf accuracy    <       0.00000007 Ry

     iteration # 13     ecut=    60.00 Ry     beta=0.70
     Davidson diagonalization with overlap
     ethr =  4.44E-11,  avg # of iterations =  2.0

     total cpu time spent up to now is      403.2 secs

     total energy              =   -1205.34622812 Ry
     Harris-Foulkes estimate   =   -1205.34622813 Ry
     estimated scf accuracy    <       0.00000003 Ry

     iteration # 14     ecut=    60.00 Ry     beta=0.70
     Davidson diagonalization with overlap
     ethr =  2.16E-11,  avg # of iterations =  1.1

     total cpu time spent up to now is      411.6 secs

     End of self-consistent calculation

          k = 0.1667 0.0963 0.2320 ( 18618 PWs)   bands (ev):

   -66.1761 -66.1272 -66.0744 -66.0577 -36.2010 -36.1896 -36.1729 -36.1606
   -36.1396 -36.1276 -36.1206 -36.1164 -36.1071 -36.0728 -36.0623 -36.0585
   -10.9084  -9.7336  -9.5286  -9.1696  -9.0395  -8.9864  -8.9569  -8.9215
    -8.8898  -8.8706  -8.8217  -8.7987  -1.6930   0.3726   0.5891   0.7141
     0.7890   0.8791   0.9156   1.0321   1.1026   1.2352   1.3101   1.3975
     1.4217   1.4870   1.5979   1.6722   1.7912   1.9480   2.1480   2.2590
     2.3475   2.4618   2.5401   2.8077   2.9260   3.1306   3.2741   3.4521
     3.5530   3.6136   3.6549   3.8090   3.8659   3.9118   4.0021   4.0601
     5.5319   5.5885   5.6248   5.7880   5.8969   5.9572   6.0736   6.1372
     6.3172   6.3524   6.4249   6.4967   7.0629   8.1064   8.1694   8.2631
     8.3213   8.4463   8.5159   8.5934  10.0041  12.7046  13.2386  13.2963
    13.3965  13.7893

          k = 0.1667 0.0963-0.4682 ( 18621 PWs)   bands (ev):

   -66.1761 -66.1272 -66.0744 -66.0577 -36.2010 -36.1896 -36.1729 -36.1606
   -36.1396 -36.1276 -36.1206 -36.1164 -36.1071 -36.0728 -36.0623 -36.0585
   -10.8936  -9.6398  -9.4350  -9.1554  -9.0916  -9.0616  -8.9922  -8.9516
    -8.9326  -8.8718  -8.8471  -8.8008  -1.6893   0.3460   0.6187   0.7218
     0.7941   0.8862   0.9888   1.0999   1.1863   1.2902   1.3076   1.3608
     1.4352   1.4400   1.5375   1.7147   1.7804   1.9339   2.0720   2.2964
     2.4470   2.5523   2.7012   2.8090   2.9858   3.0798   3.2626   3.3202
     3.4535   3.5858   3.7035   3.7670   3.8266   3.8617   3.9211   4.0376
     5.5413   5.6067   5.6840   5.7948   5.9001   5.9448   6.0139   6.1434
     6.2499   6.3157   6.3627   6.4535   7.1782   8.1590   8.2532   8.3230
     8.3385   8.4488   8.4680   8.5221   9.8705  13.3880  13.5416  13.5731
    13.7319  13.8049

          k = 0.1667 0.0963-0.1181 ( 18613 PWs)   bands (ev):

   -66.1761 -66.1272 -66.0744 -66.0577 -36.2010 -36.1896 -36.1729 -36.1606
   -36.1396 -36.1276 -36.1206 -36.1164 -36.1071 -36.0728 -36.0623 -36.0585
   -10.9185  -9.7597  -9.5476  -9.1293  -9.0255  -9.0008  -8.9464  -8.9139
    -8.8712  -8.8553  -8.8218  -8.8086  -1.7615   0.2624   0.4667   0.6748
     0.8522   0.9151   1.0033   1.0741   1.1100   1.1312   1.2068   1.2894
     1.3910   1.4399   1.5350   1.6196   1.7522   1.9843   2.0616   2.2531
     2.3583   2.5992   2.7749   2.9037   2.9790   3.2025   3.2812   3.3916
     3.5776   3.7007   3.7646   3.8720   3.9221   3.9970   4.1442   4.2104
     5.4297   5.5867   5.6373   5.7825   5.9208   6.0130   6.0480   6.1215
     6.2330   6.2747   6.3331   6.3643   7.2194   8.2219   8.2658   8.3426
     8.4360   8.4726   8.5043   8.6415   9.6509  12.3560  12.9381  13.2087
    13.2517  13.4090

          k = 0.1667-0.2889 0.2320 ( 18610 PWs)   bands (ev):

   -66.1761 -66.1272 -66.0744 -66.0577 -36.2010 -36.1896 -36.1729 -36.1606
   -36.1397 -36.1278 -36.1203 -36.1164 -36.1070 -36.0728 -36.0623 -36.0585
   -10.9072  -9.7101  -9.5878  -9.0937  -9.0360  -8.9898  -8.9676  -8.9373
    -8.9138  -8.8677  -8.8193  -8.7944  -1.6924   0.3444   0.6089   0.6883
     0.7806   0.8266   0.9575   1.0415   1.0987   1.2009   1.2765   1.3567
     1.3987   1.5016   1.5921   1.6443   1.8795   1.9910   2.1634   2.3191
     2.4304   2.5852   2.7273   2.8809   2.9127   2.9801   3.2323   3.3575
     3.4648   3.5934   3.6746   3.7564   3.7677   3.8671   3.9862   4.0587
     5.5173   5.6444   5.6738   5.7334   5.9684   6.0343   6.1200   6.1965
     6.2916   6.3522   6.3908   6.4060   7.0391   8.0672   8.1472   8.2333
     8.3185   8.3711   8.5734   8.6313  10.0277  13.1220  13.3312  13.6123
    13.7718  13.8065

          k = 0.1667-0.2889-0.4682 ( 18628 PWs)   bands (ev):

   -66.1761 -66.1272 -66.0744 -66.0577 -36.2010 -36.1896 -36.1729 -36.1606
   -36.1397 -36.1278 -36.1203 -36.1164 -36.1070 -36.0728 -36.0623 -36.0585
   -10.8929  -9.5993  -9.5112  -9.1310  -9.0798  -9.0513  -8.9778  -8.9609
    -8.9295  -8.8779  -8.8656  -8.7952  -1.6899   0.3137   0.5528   0.7331
     0.8075   0.9115   1.0724   1.1068   1.1354   1.1699   1.2410   1.3157
     1.4119   1.4756   1.5792   1.7015   1.9404   2.0294   2.1884   2.3646
     2.3965   2.6343   2.7610   2.8687   2.9528   3.0383   3.1871   3.2260
     3.4278   3.5739   3.6195   3.6652   3.7644   3.9182   3.9499   3.9703
     5.4764   5.6244   5.7657   5.8156   5.9476   6.0158   6.0803   6.1176
     6.2453   6.3146   6.3769   6.3905   7.1455   8.1375   8.1793   8.3352
     8.3671   8.4083   8.4892   8.5282   9.8646  13.3554  13.4408  13.6610
    13.7528  13.9720

          k = 0.1667-0.2889-0.1181 ( 18626 PWs)   bands (ev):

   -66.1761 -66.1272 -66.0744 -66.0577 -36.2010 -36.1896 -36.1729 -36.1606
   -36.1397 -36.1278 -36.1203 -36.1164 -36.1070 -36.0728 -36.0623 -36.0585
   -10.9170  -9.7449  -9.5960  -9.0704  -9.0083  -8.9746  -8.9520  -8.9333
    -8.9118  -8.8517  -8.8281  -8.8103  -1.7616   0.2502   0.5333   0.5992
     0.7732   0.8409   0.9641   1.0609   1.1375   1.2016   1.2126   1.2589
     1.3787   1.4797   1.5490   1.6670   1.8760   1.9367   2.1294   2.2959
     2.4832   2.6856   2.7630   2.8369   2.9482   3.1600   3.2606   3.4453
     3.4778   3.6675   3.7223   3.7447   3.8847   3.9659   4.1390   4.2374
     5.4497   5.6219   5.7656   5.8389   5.9148   6.0223   6.0687   6.0848
     6.2187   6.2638   6.2991   6.3229   7.2202   8.1977   8.2515   8.3317
     8.3615   8.4678   8.5366   8.6638   9.6691  12.8348  12.8461  13.2897
    13.3781  13.5715

          k =-0.5000 0.0963 0.0042 ( 18623 PWs)   bands (ev):

   -66.1761 -66.1272 -66.0744 -66.0577 -36.2010 -36.1901 -36.1715 -36.1604
   -36.1401 -36.1245 -36.1232 -36.1197 -36.1032 -36.0723 -36.0630 -36.0600
   -10.8906  -9.5186  -9.3994  -9.2605  -9.2228  -9.0417  -9.0004  -8.9580
    -8.9175  -8.8532  -8.8170  -8.8023  -1.6837   0.3554   0.6174   0.7133
     0.7846   0.8619   0.9918   1.0529   1.1629   1.2039   1.2594   1.3278
     1.3593   1.4473   1.5659   1.7930   1.8852   2.0110   2.2179   2.3684
     2.4517   2.5410   2.7002   2.8468   2.9751   3.0772   3.2096   3.3454
     3.4108   3.5358   3.5953   3.7014   3.8222   3.8894   3.9540   4.0503
     5.4967   5.5629   5.6501   5.7826   5.9267   5.9536   6.0838   6.1503
     6.3231   6.3799   6.4228   6.4525   7.1676   8.1419   8.2413   8.3164
     8.3516   8.3787   8.4628   8.5572   9.8610  13.3947  13.4727  13.6103
    13.7066  13.7521

          k =-0.5000 0.0963-0.6961 ( 18660 PWs)   bands (ev):

   -66.1761 -66.1272 -66.0744 -66.0577 -36.2010 -36.1901 -36.1715 -36.1605
   -36.1402 -36.1245 -36.1232 -36.1197 -36.1032 -36.0724 -36.0630 -36.0601
   -10.8874  -9.4314  -9.3467  -9.2224  -9.1664  -9.0532  -9.0296  -8.9962
    -8.9443  -8.9212  -8.8793  -8.8275  -1.7612   0.2349   0.4467   0.7294
     0.7751   0.8360   0.9430   1.0189   1.0583   1.1314   1.2489   1.3061
     1.6204   1.6512   1.7606   1.8552   1.9480   2.0789   2.1697   2.3828
     2.4614   2.5754   2.8282   2.8677   3.0402   3.1416   3.1855   3.2225
     3.3635   3.5783   3.6954   3.7784   3.8885   3.9172   4.0010   4.0205
     5.3942   5.5196   5.6518   5.6891   5.8712   5.9699   6.0170   6.0340
     6.3099   6.3382   6.4353   6.4803   7.2753   8.1242   8.1371   8.4430
     8.4607   8.5151   8.5381   8.6446   9.5415  12.7416  12.7826  13.0981
    13.2762  13.4831

          k =-0.5000-0.2889 0.0042 ( 18636 PWs)   bands (ev):

   -66.1761 -66.1272 -66.0744 -66.0577 -36.2010 -36.1901 -36.1715 -36.1604
   -36.1402 -36.1245 -36.1236 -36.1194 -36.1032 -36.0723 -36.0630 -36.0600
   -10.8902  -9.4919  -9.4053  -9.3056  -9.2246  -9.0244  -9.0022  -8.9486
    -8.9320  -8.8537  -8.8035  -8.7987  -1.6872   0.2787   0.4848   0.7305
     0.7678   0.9032   1.0177   1.0664   1.1494   1.1999   1.2202   1.3054
     1.5266   1.6067   1.7474   1.9226   1.9779   2.1243   2.1894   2.2608
     2.2837   2.3912   2.5396   2.6208   2.8708   3.0600   3.1622   3.3709
     3.4539   3.6197   3.6362   3.7155   3.8123   3.9347   4.1258   4.1657
     5.3764   5.4734   5.5583   5.7177   5.9360   5.9896   6.2276   6.2896
     6.3205   6.3358   6.3879   6.4351   7.1387   8.0931   8.1955   8.3168
     8.3645   8.4418   8.4793   8.4972   9.8570  13.3182  13.4349  13.5752
    13.6716  13.9249

          k =-0.5000-0.2889-0.6961 ( 18708 PWs)   bands (ev):

   -66.1761 -66.1272 -66.0744 -66.0577 -36.2010 -36.1901 -36.1715 -36.1605
   -36.1402 -36.1246 -36.1237 -36.1194 -36.1032 -36.0724 -36.0631 -36.0601
   -10.8871  -9.4078  -9.3168  -9.2729  -9.2011  -9.0627  -9.0333  -8.9868
    -8.9457  -8.9131  -8.8493  -8.8273  -1.7670   0.1439   0.2769   0.6906
     0.8565   0.9122   1.0293   1.0686   1.1081   1.2236   1.2993   1.3468
     1.6260   1.6684   1.8088   1.9436   2.0272   2.0468   2.2514   2.2832
     2.3966   2.4959   2.5443   2.5911   2.9385   3.0467   3.1742   3.3003
     3.3807   3.6072   3.8104   3.8696   3.9025   4.0271   4.1084   4.1146
     5.3174   5.4731   5.5527   5.6719   5.8865   5.9692   6.0430   6.2015
     6.2367   6.2555   6.4401   6.4806   7.3096   8.1097   8.1588   8.3453
     8.4444   8.4761   8.5646   8.7065   9.5283  12.5022  12.5915  12.8430
    13.3639  14.1602

          k =-0.1667 0.0963-0.2320 ( 18618 PWs)   bands (ev):

   -66.1761 -66.1272 -66.0744 -66.0577 -36.2010 -36.1896 -36.1730 -36.1606
   -36.1396 -36.1277 -36.1202 -36.1165 -36.1071 -36.0728 -36.0623 -36.0585
   -10.9082  -9.7380  -9.5245  -9.1536  -9.0552  -8.9923  -8.9544  -8.9341
    -8.8788  -8.8609  -8.8310  -8.7944  -1.6908   0.3487   0.5894   0.7198
     0.8077   0.8554   0.9344   1.0222   1.1268   1.2383   1.2918   1.3733
     1.4117   1.4960   1.5821   1.6810   1.8429   1.9789   2.1237   2.2728
     2.3566   2.4692   2.5469   2.7574   2.9353   3.0784   3.2874   3.4550
     3.5280   3.6238   3.6424   3.7965   3.8732   3.9256   4.0066   4.0953
     5.5143   5.5581   5.6367   5.8258   5.8788   5.9727   6.0562   6.1543
     6.3159   6.3558   6.4229   6.5021   7.0559   8.0991   8.1752   8.2637
     8.3228   8.4563   8.5022   8.6052   9.9898  12.6642  13.1972  13.3281
    13.3812  14.0085

          k =-0.1667 0.0963 0.4682 ( 18621 PWs)   bands (ev):

   -66.1761 -66.1272 -66.0744 -66.0577 -36.2010 -36.1896 -36.1729 -36.1606
   -36.1396 -36.1277 -36.1202 -36.1166 -36.1071 -36.0728 -36.0623 -36.0585
   -10.8936  -9.6407  -9.4354  -9.1393  -9.1018  -9.0705  -8.9798  -8.9615
    -8.9287  -8.8764  -8.8501  -8.7954  -1.6877   0.3322   0.6187   0.6907
     0.8160   0.8972   1.0038   1.1134   1.1754   1.2899   1.3194   1.3630
     1.4014   1.4402   1.5359   1.7017   1.7893   1.9857   2.0581   2.3556
     2.4040   2.5529   2.7183   2.7642   2.9735   3.0820   3.2323   3.3405
     3.4299   3.6195   3.6638   3.7355   3.8264   3.8822   3.9554   4.0611
     5.4870   5.6095   5.6988   5.8399   5.8951   5.9528   6.0075   6.1386
     6.2616   6.3168   6.3592   6.4586   7.1549   8.1418   8.2648   8.3205
     8.3464   8.4220   8.4763   8.5465   9.8682  13.3394  13.5298  13.5816
    13.7492  13.8129

          k =-0.1667 0.0963 0.1181 ( 18613 PWs)   bands (ev):

   -66.1761 -66.1272 -66.0744 -66.0577 -36.2010 -36.1896 -36.1729 -36.1606
   -36.1396 -36.1277 -36.1202 -36.1166 -36.1071 -36.0728 -36.0623 -36.0585
   -10.9185  -9.7609  -9.5471  -9.1172  -9.0370  -9.0035  -8.9452  -8.9144
    -8.8843  -8.8344  -8.8230  -8.8133  -1.7606   0.2550   0.4704   0.6935
     0.8176   0.9295   1.0186   1.0514   1.1021   1.1524   1.1882   1.2741
     1.4056   1.4619   1.5151   1.6005   1.7798   1.9887   2.0805   2.2596
     2.4454   2.5445   2.7414   2.8539   2.9911   3.1809   3.2987   3.3910
     3.5878   3.7020   3.7488   3.8649   3.9168   4.0403   4.1408   4.2044
     5.4181   5.5847   5.6523   5.7880   5.9337   6.0103   6.0440   6.1276
     6.2326   6.2648   6.3334   6.3676   7.2096   8.2239   8.2589   8.3598
     8.4242   8.4711   8.5138   8.6326   9.6495  12.3575  12.9370  13.1925
    13.2497  13.4386

          k = 0.5000 0.0963-0.0042 ( 18623 PWs)   bands (ev):

   -66.1761 -66.1272 -66.0744 -66.0577 -36.2010 -36.1901 -36.1715 -36.1604
   -36.1402 -36.1245 -36.1232 -36.1197 -36.1032 -36.0723 -36.0629 -36.0600
   -10.8906  -9.5184  -9.3872  -9.2956  -9.2027  -9.0336  -9.0059  -8.9537
    -8.9145  -8.8655  -8.8154  -8.7990  -1.6835   0.3560   0.5990   0.7200
     0.7729   0.8791   0.9883   1.0714   1.1819   1.1994   1.2391   1.3028
     1.4239   1.4518   1.5308   1.7558   1.9078   2.0175   2.2103   2.3234
     2.4764   2.5632   2.6923   2.8312   3.0374   3.0512   3.2068   3.3561
     3.4131   3.5242   3.5876   3.6946   3.8253   3.8654   3.9768   4.0570
     5.4790   5.5774   5.6664   5.7429   5.9245   5.9494   6.1070   6.1532
     6.3215   6.3875   6.4263   6.4528   7.1543   8.1535   8.2231   8.3219
     8.3389   8.4056   8.4599   8.5575   9.8570  13.3714  13.4475  13.5495
    13.7291  13.8047

     the Fermi energy is     6.3948 ev

!    total energy              =   -1205.34622812 Ry
     Harris-Foulkes estimate   =   -1205.34622813 Ry
     estimated scf accuracy    <          9.4E-09 Ry

     The total energy is the sum of the following terms:

     one-electron contribution =    -656.23188976 Ry
     hartree contribution      =     382.39076056 Ry
     xc contribution           =    -246.49649542 Ry
     ewald contribution        =    -684.99136197 Ry
     smearing contrib. (-TS)   =      -0.01724153 Ry

     convergence has been achieved in  14 iterations

     Forces acting on atoms (Ry/au):

     atom    1 type  1   force =    -0.00092480    0.00326229    0.00222702
     atom    2 type  1   force =    -0.00063588   -0.00188217    0.00285691
     atom    3 type  1   force =     0.00616463   -0.02956926    0.02490833
     atom    4 type  1   force =     0.00892509    0.00425027    0.01460743
     atom    5 type  2   force =     0.00050182    0.00366596    0.00046987
     atom    6 type  2   force =     0.00183162   -0.00233532   -0.00054813
     atom    7 type  2   force =    -0.00045203    0.00133665   -0.00143710
     atom    8 type  2   force =    -0.00194742   -0.00120267    0.00046657
     atom    9 type  2   force =    -0.00172164   -0.00000417    0.00157455
     atom   10 type  2   force =     0.00107322   -0.00253078   -0.00240212
     atom   11 type  2   force =     0.00342229    0.00800906   -0.00835183
     atom   12 type  2   force =    -0.00099178   -0.01164514   -0.00254066
     atom   13 type  2   force =    -0.00197716   -0.00061199   -0.00243875
     atom   14 type  2   force =    -0.02904976    0.07127893   -0.05398137
     atom   15 type  2   force =     0.00028417   -0.00075467   -0.00210586
     atom   16 type  2   force =     0.00104440   -0.00023769    0.00239353
     atom   17 type  3   force =     0.01445323   -0.04102930    0.02430159

     Total force =     0.116430     Total SCF correction =     0.000322


     entering subroutine stress ...

          total   stress  (Ry/bohr**3)                   (kbar)     P=   13.33
   0.00009493   0.00000639   0.00001518         13.96      0.94      2.23
   0.00000639   0.00005051   0.00000434          0.94      7.43      0.64
   0.00001518   0.00000434   0.00012641          2.23      0.64     18.60


     number of scf cycles    =   2
     number of bfgs steps    =   1

     energy   old            =   -1205.3237022344 Ry
     energy   new            =   -1205.3462281178 Ry

     CASE: energy  _new < energy  _old

     new trust radius        =       0.1396932932 bohr
     new conv_thr            =       0.0000000100 Ry


ATOMIC_POSITIONS (crystal)
Ru      -0.000126053   0.334920584   0.000509429
Ru       0.000066922   0.665333619   0.000663224
Ru       0.503946489   0.829332267   0.006796570
Ru       0.504137771   0.166043032   0.004436209
Cl       0.751734986   0.173988339   0.766210109
Cl       0.248981344   0.826212860   0.233516367
Cl       0.248250948   0.173675024   0.233491844
Cl       0.751036064   0.826375841   0.766294155
Cl       0.251125386   0.673575656   0.766696263
Cl       0.748487125   0.326065434   0.232882812
Cl       0.748451992   0.674799339   0.231429801
Cl       0.250612513   0.324650851   0.765465892
Cl       0.729500777   0.000267025   0.238292403
Cl       0.258033590   0.010482975   0.747160461
Cl       0.230026561   0.499908600   0.238362703
Cl       0.770309108   0.499949572   0.761764868
XXMU       0.105424478   0.094418983   0.606026889



     Writing output data file a-RuCl3.mu1.rel.1x1x1.100100600.save
     NEW-OLD atomic charge density approx. for the potential

     total cpu time spent up to now is      436.0 secs

     Self-consistent Calculation

     iteration #  1     ecut=    60.00 Ry     beta=0.70
     Davidson diagonalization with overlap
     c_bands:  1 eigenvalues not converged
     c_bands:  1 eigenvalues not converged
     ethr =  1.00E-06,  avg # of iterations = 12.3

     total cpu time spent up to now is      460.4 secs

     total energy              =   -1205.35341597 Ry
     Harris-Foulkes estimate   =   -1205.36155325 Ry
     estimated scf accuracy    <       0.01197065 Ry

     iteration #  2     ecut=    60.00 Ry     beta=0.70
     Davidson diagonalization with overlap
     ethr =  8.03E-06,  avg # of iterations =  6.7

     total cpu time spent up to now is      476.7 secs

     total energy              =   -1205.31853936 Ry
     Harris-Foulkes estimate   =   -1205.43189474 Ry
     estimated scf accuracy    <       1.40703735 Ry

     iteration #  3     ecut=    60.00 Ry     beta=0.70
     Davidson diagonalization with overlap
     ethr =  8.03E-06,  avg # of iterations =  7.1

     total cpu time spent up to now is      493.1 secs

     total energy              =   -1205.34853442 Ry
     Harris-Foulkes estimate   =   -1205.36609531 Ry
     estimated scf accuracy    <       0.13488454 Ry

     iteration #  4     ecut=    60.00 Ry     beta=0.70
     Davidson diagonalization with overlap
     ethr =  8.03E-06,  avg # of iterations =  3.9

     total cpu time spent up to now is      503.7 secs

     total energy              =   -1205.35323472 Ry
     Harris-Foulkes estimate   =   -1205.36363599 Ry
     estimated scf accuracy    <       0.09255220 Ry

     iteration #  5     ecut=    60.00 Ry     beta=0.70
     Davidson diagonalization with overlap
     ethr =  8.03E-06,  avg # of iterations =  4.2

     total cpu time spent up to now is      514.4 secs

     total energy              =   -1205.35311679 Ry
     Harris-Foulkes estimate   =   -1205.36649123 Ry
     estimated scf accuracy    <       0.16261492 Ry

     iteration #  6     ecut=    60.00 Ry     beta=0.70
     Davidson diagonalization with overlap
     ethr =  8.03E-06,  avg # of iterations =  4.0

     total cpu time spent up to now is      524.9 secs

     total energy              =   -1205.35924100 Ry
     Harris-Foulkes estimate   =   -1205.36041319 Ry
     estimated scf accuracy    <       0.01990311 Ry

     iteration #  7     ecut=    60.00 Ry     beta=0.70
     Davidson diagonalization with overlap
     ethr =  8.03E-06,  avg # of iterations =  1.0

     total cpu time spent up to now is      533.2 secs

     total energy              =   -1205.35977560 Ry
     Harris-Foulkes estimate   =   -1205.35991015 Ry
     estimated scf accuracy    <       0.00058389 Ry

     iteration #  8     ecut=    60.00 Ry     beta=0.70
     Davidson diagonalization with overlap
     ethr =  3.92E-07,  avg # of iterations =  2.1

     total cpu time spent up to now is      542.5 secs

     total energy              =   -1205.35982316 Ry
     Harris-Foulkes estimate   =   -1205.35988503 Ry
     estimated scf accuracy    <       0.00115129 Ry

     iteration #  9     ecut=    60.00 Ry     beta=0.70
     Davidson diagonalization with overlap
     ethr =  3.92E-07,  avg # of iterations =  1.0

     total cpu time spent up to now is      550.8 secs

     total energy              =   -1205.35984752 Ry
     Harris-Foulkes estimate   =   -1205.35985319 Ry
     estimated scf accuracy    <       0.00003699 Ry

     iteration # 10     ecut=    60.00 Ry     beta=0.70
     Davidson diagonalization with overlap
     ethr =  2.48E-08,  avg # of iterations =  2.0

     total cpu time spent up to now is      559.8 secs

     total energy              =   -1205.35985005 Ry
     Harris-Foulkes estimate   =   -1205.35985134 Ry
     estimated scf accuracy    <       0.00000352 Ry

     iteration # 11     ecut=    60.00 Ry     beta=0.70
     Davidson diagonalization with overlap
     ethr =  2.36E-09,  avg # of iterations =  2.0

     total cpu time spent up to now is      569.7 secs

     total energy              =   -1205.35985059 Ry
     Harris-Foulkes estimate   =   -1205.35985111 Ry
     estimated scf accuracy    <       0.00000275 Ry

     iteration # 12     ecut=    60.00 Ry     beta=0.70
     Davidson diagonalization with overlap
     ethr =  1.85E-09,  avg # of iterations =  2.0

     total cpu time spent up to now is      578.7 secs

     total energy              =   -1205.35985083 Ry
     Harris-Foulkes estimate   =   -1205.35985088 Ry
     estimated scf accuracy    <       0.00000011 Ry

     iteration # 13     ecut=    60.00 Ry     beta=0.70
     Davidson diagonalization with overlap
     ethr =  7.32E-11,  avg # of iterations =  2.0

     total cpu time spent up to now is      589.0 secs

     total energy              =   -1205.35985086 Ry
     Harris-Foulkes estimate   =   -1205.35985087 Ry
     estimated scf accuracy    <       0.00000006 Ry

     iteration # 14     ecut=    60.00 Ry     beta=0.70
     Davidson diagonalization with overlap
     ethr =  3.77E-11,  avg # of iterations =  1.1

     total cpu time spent up to now is      597.4 secs

     total energy              =   -1205.35985086 Ry
     Harris-Foulkes estimate   =   -1205.35985086 Ry
     estimated scf accuracy    <       0.00000001 Ry

     iteration # 15     ecut=    60.00 Ry     beta=0.70
     Davidson diagonalization with overlap
     ethr =  9.53E-12,  avg # of iterations =  2.0

     total cpu time spent up to now is      606.6 secs

     total energy              =   -1205.35985086 Ry
     Harris-Foulkes estimate   =   -1205.35985087 Ry
     estimated scf accuracy    <       0.00000021 Ry

     iteration # 16     ecut=    60.00 Ry     beta=0.70
     Davidson diagonalization with overlap
     ethr =  9.53E-12,  avg # of iterations =  2.0

     total cpu time spent up to now is      615.6 secs

     End of self-consistent calculation

          k = 0.1667 0.0963 0.2320 ( 18618 PWs)   bands (ev):

   -66.1624 -66.1076 -66.0523 -66.0453 -36.1886 -36.1771 -36.1619 -36.1419
   -36.1221 -36.1128 -36.1084 -36.0955 -36.0846 -36.0617 -36.0481 -36.0402
   -11.1789  -9.7580  -9.5368  -9.1850  -9.0723  -8.9677  -8.9335  -8.9293
    -8.8838  -8.8615  -8.8147  -8.7939  -2.0165   0.3814   0.5808   0.7006
     0.7756   0.8690   0.9237   1.0219   1.0783   1.2336   1.3049   1.3962
     1.4119   1.4828   1.5966   1.6625   1.7827   1.9272   2.1600   2.2376
     2.3412   2.4692   2.5372   2.7936   2.8988   3.1333   3.2722   3.4428
     3.5571   3.5912   3.6573   3.8153   3.8679   3.9080   3.9943   4.0604
     5.5440   5.6118   5.6385   5.7924   5.9064   5.9843   6.0810   6.1603
     6.3314   6.3695   6.4410   6.5127   7.2373   8.1130   8.1889   8.2802
     8.3509   8.4660   8.5321   8.6104  10.4658  12.6893  13.2331  13.2707
    13.3749  13.7859

          k = 0.1667 0.0963-0.4682 ( 18621 PWs)   bands (ev):

   -66.1624 -66.1076 -66.0523 -66.0453 -36.1886 -36.1771 -36.1619 -36.1419
   -36.1221 -36.1128 -36.1084 -36.0955 -36.0846 -36.0617 -36.0481 -36.0402
   -11.1675  -9.6654  -9.4492  -9.1813  -9.0912  -9.0444  -8.9885  -8.9447
    -8.9289  -8.8703  -8.8352  -8.7970  -2.0107   0.3436   0.6251   0.7147
     0.7895   0.8720   0.9821   1.0875   1.1820   1.2766   1.2998   1.3610
     1.4293   1.4475   1.5328   1.6926   1.7665   1.9158   2.0780   2.2749
     2.4373   2.5383   2.7064   2.7964   2.9714   3.0852   3.2511   3.3217
     3.4413   3.5904   3.7038   3.7529   3.8324   3.8597   3.9234   4.0379
     5.5487   5.6283   5.7011   5.8000   5.9040   5.9736   6.0293   6.1633
     6.2688   6.3299   6.3791   6.4679   7.3274   8.1722   8.2694   8.3411
     8.3598   8.4645   8.4909   8.5484  10.3387  13.3818  13.5012  13.5783
    13.6942  13.8278

          k = 0.1667 0.0963-0.1181 ( 18613 PWs)   bands (ev):

   -66.1624 -66.1076 -66.0523 -66.0453 -36.1886 -36.1771 -36.1619 -36.1419
   -36.1221 -36.1128 -36.1084 -36.0955 -36.0846 -36.0617 -36.0481 -36.0402
   -11.1867  -9.7837  -9.5564  -9.1557  -9.0610  -8.9652  -8.9335  -8.9133
    -8.8629  -8.8504  -8.8187  -8.8016  -2.0766   0.2735   0.4646   0.6579
     0.8417   0.9100   0.9925   1.0659   1.0969   1.1306   1.2106   1.2819
     1.3826   1.4355   1.5360   1.6076   1.7368   1.9742   2.0575   2.2521
     2.3440   2.5765   2.7705   2.8754   2.9677   3.1967   3.2794   3.3751
     3.5824   3.6945   3.7655   3.8687   3.9193   3.9848   4.1519   4.2039
     5.4746   5.6026   5.6556   5.7908   5.9286   6.0255   6.0640   6.1319
     6.2530   6.2899   6.3487   6.3840   7.3762   8.2284   8.2808   8.3672
     8.4563   8.4984   8.5209   8.6644  10.0955  12.3524  12.9402  13.1955
    13.2553  13.4073

          k = 0.1667-0.2889 0.2320 ( 18610 PWs)   bands (ev):

   -66.1624 -66.1076 -66.0523 -66.0453 -36.1886 -36.1771 -36.1619 -36.1419
   -36.1222 -36.1132 -36.1080 -36.0956 -36.0845 -36.0617 -36.0481 -36.0402
   -11.1783  -9.7294  -9.5996  -9.1425  -9.0312  -8.9776  -8.9492  -8.9325
    -8.9172  -8.8533  -8.8147  -8.7895  -2.0160   0.3484   0.6031   0.6794
     0.7639   0.8240   0.9597   1.0202   1.0935   1.1967   1.2632   1.3488
     1.4019   1.5018   1.5906   1.6448   1.8462   1.9911   2.1518   2.3148
     2.4073   2.5668   2.7199   2.8631   2.9163   2.9892   3.2227   3.3613
     3.4718   3.5765   3.6873   3.7478   3.7719   3.8585   3.9849   4.0577
     5.5238   5.6634   5.6831   5.7507   5.9730   6.0377   6.1452   6.2121
     6.3079   6.3735   6.4080   6.4260   7.2185   8.0830   8.1512   8.2687
     8.3307   8.3968   8.5841   8.6509  10.4942  13.0446  13.3313  13.6018
    13.7547  13.7986

          k = 0.1667-0.2889-0.4682 ( 18628 PWs)   bands (ev):

   -66.1624 -66.1076 -66.0523 -66.0453 -36.1886 -36.1771 -36.1619 -36.1419
   -36.1222 -36.1132 -36.1081 -36.0956 -36.0845 -36.0618 -36.0481 -36.0402
   -11.1671  -9.6264  -9.5205  -9.1723  -9.0638  -9.0272  -8.9834  -8.9660
    -8.9201  -8.8738  -8.8495  -8.7925  -2.0111   0.3073   0.5534   0.7309
     0.8086   0.8881   1.0727   1.1073   1.1149   1.1803   1.2304   1.3260
     1.4108   1.4677   1.5615   1.6862   1.9127   2.0218   2.1719   2.3511
     2.3845   2.6041   2.7561   2.8502   2.9537   3.0485   3.1933   3.2292
     3.4202   3.5741   3.6397   3.6581   3.7487   3.9316   3.9396   3.9745
     5.4764   5.6452   5.7739   5.8299   5.9458   6.0318   6.1048   6.1354
     6.2666   6.3335   6.3882   6.4028   7.3043   8.1521   8.1956   8.3609
     8.3851   8.4312   8.5026   8.5504  10.3294  13.3608  13.4441  13.6287
    13.7420  13.9582

          k = 0.1667-0.2889-0.1181 ( 18626 PWs)   bands (ev):

   -66.1624 -66.1076 -66.0523 -66.0453 -36.1886 -36.1771 -36.1619 -36.1419
   -36.1222 -36.1132 -36.1080 -36.0956 -36.0845 -36.0618 -36.0481 -36.0402
   -11.1860  -9.7617  -9.6104  -9.1326  -8.9893  -8.9692  -8.9369  -8.9248
    -8.9001  -8.8509  -8.8233  -8.8036  -2.0765   0.2598   0.5349   0.5897
     0.7513   0.8440   0.9551   1.0682   1.1223   1.1849   1.2043   1.2502
     1.3740   1.4657   1.5487   1.6635   1.8657   1.9381   2.1253   2.2930
     2.4395   2.6490   2.7473   2.8456   2.9377   3.1663   3.2438   3.4551
     3.4770   3.6569   3.7292   3.7419   3.8748   3.9683   4.1306   4.2362
     5.4767   5.6410   5.7801   5.8578   5.9341   6.0275   6.0828   6.0921
     6.2335   6.2803   6.3172   6.3451   7.3739   8.2104   8.2752   8.3523
     8.3781   8.4879   8.5528   8.6874  10.1223  12.8117  12.8446  13.2763
    13.3809  13.5933

          k =-0.5000 0.0963 0.0042 ( 18623 PWs)   bands (ev):

   -66.1624 -66.1076 -66.0523 -66.0453 -36.1885 -36.1776 -36.1605 -36.1416
   -36.1228 -36.1135 -36.1055 -36.1003 -36.0811 -36.0609 -36.0489 -36.0417
   -11.1657  -9.5482  -9.4065  -9.2857  -9.2146  -9.0480  -8.9882  -8.9438
    -8.9175  -8.8422  -8.8115  -8.8006  -2.0058   0.3470   0.6108   0.7125
     0.7682   0.8627   0.9846   1.0506   1.1567   1.2031   1.2577   1.3059
     1.3559   1.4505   1.5650   1.7555   1.8779   2.0130   2.2103   2.3718
     2.4318   2.5432   2.6892   2.8210   2.9442   3.0735   3.2225   3.3419
     3.4084   3.5344   3.6056   3.6966   3.8332   3.8826   3.9631   4.0451
     5.5066   5.5619   5.6538   5.7839   5.9449   5.9741   6.1003   6.1662
     6.3360   6.4049   6.4448   6.4708   7.3255   8.1545   8.2548   8.3341
     8.3660   8.4124   8.4802   8.5809  10.3273  13.3902  13.4603  13.6020
    13.6833  13.7499

          k =-0.5000 0.0963-0.6961 ( 18660 PWs)   bands (ev):

   -66.1624 -66.1076 -66.0524 -66.0453 -36.1886 -36.1776 -36.1606 -36.1417
   -36.1228 -36.1135 -36.1055 -36.1003 -36.0811 -36.0610 -36.0490 -36.0418
   -11.1630  -9.4622  -9.3741  -9.2413  -9.1534  -9.0450  -9.0185  -8.9800
    -8.9458  -8.9186  -8.8687  -8.8261  -2.0691   0.2318   0.4451   0.7291
     0.7654   0.8325   0.9423   0.9981   1.0765   1.1252   1.2504   1.3061
     1.6117   1.6209   1.7494   1.8546   1.9253   2.0686   2.1396   2.3848
     2.4493   2.5648   2.7843   2.8392   2.9994   3.1600   3.1896   3.2228
     3.3586   3.5818   3.6922   3.7774   3.8865   3.9291   4.0038   4.0289
     5.4216   5.5251   5.6508   5.6882   5.9038   5.9792   6.0313   6.0643
     6.3403   6.3551   6.4433   6.4991   7.4501   8.1241   8.1518   8.4552
     8.4791   8.5419   8.5590   8.6688   9.9622  12.7460  12.7768  13.1080
    13.2794  13.4834

          k =-0.5000-0.2889 0.0042 ( 18636 PWs)   bands (ev):

   -66.1624 -66.1076 -66.0523 -66.0453 -36.1885 -36.1776 -36.1606 -36.1416
   -36.1228 -36.1137 -36.1055 -36.1002 -36.0810 -36.0610 -36.0490 -36.0418
   -11.1655  -9.5237  -9.4222  -9.3005  -9.2316  -9.0322  -8.9828  -8.9476
    -8.9312  -8.8402  -8.8024  -8.7912  -2.0078   0.2657   0.4841   0.7306
     0.7622   0.8905   1.0215   1.0477   1.1495   1.1833   1.2264   1.2923
     1.5027   1.5976   1.7399   1.9265   1.9643   2.0996   2.1972   2.2587
     2.2837   2.3908   2.5396   2.6331   2.8360   3.0670   3.1294   3.3610
     3.4523   3.6218   3.6440   3.7166   3.8107   3.9305   4.1271   4.1528
     5.3944   5.4824   5.5666   5.7457   5.9382   5.9935   6.2526   6.3035
     6.3316   6.3525   6.4077   6.4532   7.3009   8.1039   8.2202   8.3417
     8.3737   8.4676   8.4969   8.5175  10.3204  13.3196  13.4401  13.5544
    13.6816  13.8957

          k =-0.5000-0.2889-0.6961 ( 18708 PWs)   bands (ev):

   -66.1625 -66.1076 -66.0524 -66.0453 -36.1886 -36.1776 -36.1606 -36.1417
   -36.1228 -36.1137 -36.1056 -36.1003 -36.0811 -36.0610 -36.0490 -36.0418
   -11.1628  -9.4462  -9.3551  -9.2587  -9.2014  -9.0497  -9.0182  -8.9854
    -8.9452  -8.9075  -8.8391  -8.8256  -2.0726   0.1338   0.2795   0.6986
     0.8486   0.9089   1.0192   1.0425   1.1088   1.2135   1.3005   1.3415
     1.6224   1.6603   1.8020   1.9256   2.0088   2.0343   2.2470   2.2928
     2.3707   2.4951   2.5297   2.6019   2.8634   3.0218   3.1680   3.3087
     3.3839   3.6175   3.8115   3.8471   3.9132   4.0247   4.0959   4.1277
     5.3383   5.4832   5.5537   5.6854   5.9140   5.9833   6.0958   6.2054
     6.2522   6.2805   6.4491   6.4968   7.4757   8.1159   8.1758   8.3634
     8.4603   8.5072   8.5715   8.7303   9.9458  12.5099  12.5877  12.8563
    13.4335  14.1459

          k =-0.1667 0.0963-0.2320 ( 18618 PWs)   bands (ev):

   -66.1624 -66.1076 -66.0523 -66.0453 -36.1886 -36.1771 -36.1619 -36.1419
   -36.1222 -36.1130 -36.1082 -36.0955 -36.0846 -36.0617 -36.0480 -36.0402
   -11.1789  -9.7609  -9.5349  -9.1540  -9.1087  -8.9705  -8.9365  -8.9288
    -8.8734  -8.8501  -8.8246  -8.7943  -2.0150   0.3575   0.5795   0.7107
     0.8006   0.8437   0.9333   1.0218   1.0910   1.2431   1.2818   1.3559
     1.4091   1.5015   1.5788   1.6885   1.8472   1.9308   2.1161   2.2791
     2.3456   2.4604   2.5502   2.7548   2.9130   3.0663   3.2877   3.4563
     3.5067   3.6125   3.6562   3.7976   3.8707   3.9260   4.0043   4.0940
     5.5289   5.5783   5.6494   5.8331   5.8908   5.9941   6.0547   6.1821
     6.3353   6.3704   6.4379   6.5169   7.2368   8.1003   8.1940   8.2845
     8.3528   8.4731   8.5195   8.6229  10.4519  12.6331  13.1913  13.3313
    13.3617  13.9746

          k =-0.1667 0.0963 0.4682 ( 18621 PWs)   bands (ev):

   -66.1624 -66.1076 -66.0523 -66.0453 -36.1886 -36.1771 -36.1619 -36.1419
   -36.1222 -36.1130 -36.1082 -36.0955 -36.0846 -36.0617 -36.0481 -36.0402
   -11.1675  -9.6661  -9.4508  -9.1538  -9.1218  -9.0448  -8.9815  -8.9535
    -8.9201  -8.8678  -8.8429  -8.7932  -2.0096   0.3303   0.6205   0.6826
     0.8271   0.8831   0.9977   1.1122   1.1541   1.2810   1.3178   1.3489
     1.3933   1.4437   1.5283   1.6686   1.7956   1.9721   2.0481   2.3411
     2.3918   2.5365   2.7168   2.7686   2.9565   3.0778   3.2247   3.3511
     3.4352   3.5947   3.6507   3.7485   3.8352   3.8809   3.9553   4.0580
     5.4918   5.6351   5.7088   5.8441   5.9102   5.9725   6.0165   6.1617
     6.2794   6.3310   6.3744   6.4731   7.3098   8.1549   8.2832   8.3379
     8.3620   8.4468   8.4992   8.5689  10.3357  13.3342  13.4926  13.5947
    13.7209  13.8351

          k =-0.1667 0.0963 0.1181 ( 18613 PWs)   bands (ev):

   -66.1624 -66.1076 -66.0523 -66.0453 -36.1886 -36.1771 -36.1619 -36.1419
   -36.1222 -36.1130 -36.1082 -36.0955 -36.0846 -36.0617 -36.0480 -36.0402
   -11.1867  -9.7847  -9.5564  -9.1366  -9.0828  -8.9683  -8.9277  -8.9141
    -8.8735  -8.8301  -8.8183  -8.8102  -2.0759   0.2670   0.4671   0.6757
     0.8110   0.9231   1.0096   1.0405   1.0974   1.1427   1.1881   1.2723
     1.4079   1.4535   1.5042   1.5924   1.7652   1.9818   2.0640   2.2622
     2.4374   2.5209   2.7272   2.8408   2.9799   3.1531   3.3205   3.3771
     3.5801   3.6885   3.7570   3.8723   3.9112   4.0311   4.1323   4.2070
     5.4663   5.5913   5.6741   5.7987   5.9445   6.0046   6.0634   6.1482
     6.2508   6.2835   6.3484   6.3841   7.3699   8.2332   8.2733   8.3832
     8.4395   8.4936   8.5379   8.6551  10.0933  12.3542  12.9465  13.1975
    13.2488  13.4166

          k = 0.5000 0.0963-0.0042 ( 18623 PWs)   bands (ev):

   -66.1624 -66.1076 -66.0523 -66.0453 -36.1885 -36.1776 -36.1606 -36.1416
   -36.1228 -36.1135 -36.1055 -36.1003 -36.0811 -36.0610 -36.0489 -36.0417
   -11.1657  -9.5482  -9.3907  -9.3202  -9.1979  -9.0338  -8.9999  -8.9468
    -8.9099  -8.8528  -8.8086  -8.7979  -2.0057   0.3454   0.5923   0.7132
     0.7774   0.8690   0.9805   1.0736   1.1717   1.2020   1.2391   1.2876
     1.4098   1.4568   1.5312   1.7082   1.8980   2.0209   2.1985   2.3207
     2.4791   2.5679   2.6696   2.8022   3.0201   3.0552   3.2083   3.3473
     3.4090   3.5259   3.5879   3.6976   3.8337   3.8645   3.9816   4.0547
     5.4925   5.5717   5.6735   5.7484   5.9407   5.9655   6.1220   6.1717
     6.3325   6.4099   6.4484   6.4716   7.3136   8.1652   8.2402   8.3354
     8.3679   8.4260   8.4768   8.5821  10.3242  13.3669  13.4483  13.5004
    13.7244  13.8145

     the Fermi energy is     6.4119 ev

!    total energy              =   -1205.35985086 Ry
     Harris-Foulkes estimate   =   -1205.35985086 Ry
     estimated scf accuracy    <          4.7E-09 Ry

     The total energy is the sum of the following terms:

     one-electron contribution =    -656.36786013 Ry
     hartree contribution      =     382.47324420 Ry
     xc contribution           =    -246.56701846 Ry
     ewald contribution        =    -684.88094142 Ry
     smearing contrib. (-TS)   =      -0.01727505 Ry

     convergence has been achieved in  16 iterations

     Forces acting on atoms (Ry/au):

     atom    1 type  1   force =     0.00055072    0.00142913    0.00154362
     atom    2 type  1   force =    -0.00117713   -0.00148656    0.00289364
     atom    3 type  1   force =     0.00278981   -0.01115167    0.01467327
     atom    4 type  1   force =     0.00153694    0.00444202    0.00378353
     atom    5 type  2   force =    -0.00133318    0.00325161    0.00112664
     atom    6 type  2   force =     0.00106272   -0.00225473    0.00085045
     atom    7 type  2   force =     0.00085684    0.00138005   -0.00145524
     atom    8 type  2   force =    -0.00218483   -0.00115642    0.00031778
     atom    9 type  2   force =    -0.00085244   -0.00043329    0.00081514
     atom   10 type  2   force =     0.00175228   -0.00058313    0.00124314
     atom   11 type  2   force =     0.00580511    0.00129123   -0.00246563
     atom   12 type  2   force =     0.00108208   -0.00314894   -0.00050411
     atom   13 type  2   force =    -0.00133935   -0.00467877   -0.00173287
     atom   14 type  2   force =    -0.00300682    0.02147912   -0.01801133
     atom   15 type  2   force =     0.00102461   -0.00077463   -0.00129873
     atom   16 type  2   force =     0.00042756    0.00011287    0.00133924
     atom   17 type  3   force =    -0.00699493   -0.00771787   -0.00311855

     Total force =     0.037900     Total SCF correction =     0.000250


     entering subroutine stress ...

          total   stress  (Ry/bohr**3)                   (kbar)     P=   18.55
   0.00012179  -0.00001144   0.00002828         17.92     -1.68      4.16
  -0.00001144   0.00010079  -0.00001999         -1.68     14.83     -2.94
   0.00002828  -0.00001999   0.00015571          4.16     -2.94     22.91


     number of scf cycles    =   3
     number of bfgs steps    =   2

     energy   old            =   -1205.3462281178 Ry
     energy   new            =   -1205.3598508600 Ry

     CASE: energy  _new < energy  _old

     new trust radius        =       0.0611777911 bohr
     new conv_thr            =       0.0000000100 Ry


ATOMIC_POSITIONS (crystal)
Ru       0.000000548   0.335062057   0.000755851
Ru       0.000051119   0.665205884   0.001096161
Ru       0.505213941   0.828172300   0.009235202
Ru       0.504788516   0.166405790   0.005255916
Cl       0.751635957   0.174261791   0.766363225
Cl       0.249180847   0.826026071   0.233610949
Cl       0.248273050   0.173788359   0.233274424
Cl       0.750746220   0.826280273   0.766344909
Cl       0.251030479   0.673546092   0.766836881
Cl       0.748755178   0.325992244   0.232984004
Cl       0.749064177   0.674991072   0.230924555
Cl       0.250679311   0.324283197   0.765343453
Cl       0.729205611  -0.000065023   0.238016509
Cl       0.255902099   0.012877990   0.743646809
Cl       0.230087061   0.499845022   0.238149558
Cl       0.770457256   0.499954362   0.761990310
XXMU       0.104928629   0.093372521   0.606171286



     Writing output data file a-RuCl3.mu1.rel.1x1x1.100100600.save
     NEW-OLD atomic charge density approx. for the potential

     total cpu time spent up to now is      639.9 secs

     Self-consistent Calculation

     iteration #  1     ecut=    60.00 Ry     beta=0.70
     Davidson diagonalization with overlap
     c_bands:  1 eigenvalues not converged
     ethr =  1.00E-06,  avg # of iterations =  6.2

     total cpu time spent up to now is      659.9 secs

     total energy              =   -1205.36056496 Ry
     Harris-Foulkes estimate   =   -1205.36155761 Ry
     estimated scf accuracy    <       0.00164736 Ry

     iteration #  2     ecut=    60.00 Ry     beta=0.70
     Davidson diagonalization with overlap
     ethr =  1.11E-06,  avg # of iterations =  6.1

     total cpu time spent up to now is      674.9 secs

     total energy              =   -1205.35133188 Ry
     Harris-Foulkes estimate   =   -1205.37179684 Ry
     estimated scf accuracy    <       0.42956041 Ry

     iteration #  3     ecut=    60.00 Ry     beta=0.70
     Davidson diagonalization with overlap
     ethr =  1.11E-06,  avg # of iterations =  6.4

     total cpu time spent up to now is      689.5 secs

     total energy              =   -1205.36056004 Ry
     Harris-Foulkes estimate   =   -1205.36162498 Ry
     estimated scf accuracy    <       0.00897167 Ry

     iteration #  4     ecut=    60.00 Ry     beta=0.70
     Davidson diagonalization with overlap
     ethr =  1.11E-06,  avg # of iterations =  4.1

     total cpu time spent up to now is      700.9 secs

     total energy              =   -1205.36018906 Ry
     Harris-Foulkes estimate   =   -1205.36224339 Ry
     estimated scf accuracy    <       0.01850202 Ry

     iteration #  5     ecut=    60.00 Ry     beta=0.70
     Davidson diagonalization with overlap
     ethr =  1.11E-06,  avg # of iterations =  2.0

     total cpu time spent up to now is      710.1 secs

     total energy              =   -1205.36085370 Ry
     Harris-Foulkes estimate   =   -1205.36156160 Ry
     estimated scf accuracy    <       0.00794470 Ry

     iteration #  6     ecut=    60.00 Ry     beta=0.70
     Davidson diagonalization with overlap
     ethr =  1.11E-06,  avg # of iterations =  1.9

     total cpu time spent up to now is      718.9 secs

     total energy              =   -1205.36108341 Ry
     Harris-Foulkes estimate   =   -1205.36146865 Ry
     estimated scf accuracy    <       0.00449174 Ry

     iteration #  7     ecut=    60.00 Ry     beta=0.70
     Davidson diagonalization with overlap
     ethr =  1.11E-06,  avg # of iterations =  1.0

     total cpu time spent up to now is      727.2 secs

     total energy              =   -1205.36127461 Ry
     Harris-Foulkes estimate   =   -1205.36129879 Ry
     estimated scf accuracy    <       0.00011384 Ry

     iteration #  8     ecut=    60.00 Ry     beta=0.70
     Davidson diagonalization with overlap
     ethr =  7.64E-08,  avg # of iterations =  2.0

     total cpu time spent up to now is      736.4 secs

     total energy              =   -1205.36128639 Ry
     Harris-Foulkes estimate   =   -1205.36129051 Ry
     estimated scf accuracy    <       0.00000987 Ry

     iteration #  9     ecut=    60.00 Ry     beta=0.70
[...]

     total cpu time spent up to now is    18599.5 secs

     total energy              =   -1205.40914245 Ry
     Harris-Foulkes estimate   =   -1205.40914245 Ry
     estimated scf accuracy    <          7.7E-10 Ry

     iteration # 10     ecut=    60.00 Ry     beta=0.70
     Davidson diagonalization with overlap
     ethr =  5.16E-13,  avg # of iterations =  2.0

     total cpu time spent up to now is    18608.9 secs

     total energy              =   -1205.40914245 Ry
     Harris-Foulkes estimate   =   -1205.40914245 Ry
     estimated scf accuracy    <          2.2E-10 Ry

     iteration # 11     ecut=    60.00 Ry     beta=0.70
     Davidson diagonalization with overlap
     ethr =  1.45E-13,  avg # of iterations =  2.0

     total cpu time spent up to now is    18618.4 secs

     End of self-consistent calculation

          k = 0.1667 0.0963 0.2320 ( 18618 PWs)   bands (ev):

   -66.1343 -66.1062 -66.0600 -66.0111 -36.2013 -36.1851 -36.1582 -36.1293
   -36.1203 -36.0960 -36.0800 -36.0628 -36.0567 -36.0502 -36.0236 -35.9892
   -11.1937  -9.7428  -9.5428  -9.1678  -9.0922  -8.9951  -8.9416  -8.9308
    -8.8856  -8.8194  -8.8151  -8.7744  -1.7511   0.3717   0.5089   0.6822
     0.7448   0.8192   0.9199   1.0394   1.1244   1.2248   1.2787   1.3977
     1.4079   1.4915   1.5672   1.6149   1.7694   1.9218   2.1017   2.2053
     2.2956   2.4584   2.5518   2.8107   2.8661   3.1429   3.2161   3.3746
     3.5240   3.5631   3.6368   3.8350   3.8630   3.9590   4.0534   4.1110
     5.4857   5.6458   5.6932   5.7840   5.9191   5.9672   6.0660   6.1281
     6.3444   6.3754   6.4883   6.5310   7.9109   8.0713   8.2004   8.2431
     8.3641   8.4714   8.5691   8.6653  10.3855  12.5747  13.0883  13.3329
    13.5258  13.7361

          k = 0.1667 0.0963-0.4682 ( 18621 PWs)   bands (ev):

   -66.1343 -66.1062 -66.0600 -66.0111 -36.2013 -36.1851 -36.1582 -36.1293
   -36.1203 -36.0960 -36.0800 -36.0628 -36.0567 -36.0502 -36.0236 -35.9892
   -11.1842  -9.6473  -9.4494  -9.1979  -9.0878  -9.0482  -9.0055  -8.9380
    -8.9311  -8.8573  -8.8242  -8.7758  -1.7483   0.3065   0.5650   0.6918
     0.7453   0.9400   0.9861   1.0634   1.1453   1.2155   1.3011   1.3570
     1.3839   1.4363   1.4849   1.6537   1.7909   1.9074   2.0549   2.2711
     2.4071   2.6226   2.7135   2.8249   2.9135   3.0864   3.1986   3.3123
     3.3795   3.4785   3.6957   3.7511   3.8716   3.9101   3.9693   4.0800
     5.4967   5.6533   5.7157   5.7942   5.9116   5.9737   6.0267   6.1217
     6.2962   6.3382   6.4459   6.4827   7.9828   8.1057   8.2493   8.3053
     8.3993   8.4609   8.5345   8.6002  10.4387  13.1901  13.4241  13.5714
    13.6287  13.7508

          k = 0.1667 0.0963-0.1181 ( 18613 PWs)   bands (ev):

   -66.1343 -66.1062 -66.0600 -66.0111 -36.2013 -36.1851 -36.1581 -36.1293
   -36.1203 -36.0960 -36.0800 -36.0628 -36.0567 -36.0502 -36.0236 -35.9892
   -11.1996  -9.7701  -9.5617  -9.1424  -9.0855  -8.9946  -8.9439  -8.9075
    -8.8457  -8.8216  -8.8155  -8.7891  -1.7798   0.2738   0.3932   0.5873
     0.7323   0.9318   1.0225   1.0613   1.1045   1.1684   1.2053   1.2938
     1.3758   1.4169   1.5068   1.5558   1.7117   1.8427   2.0880   2.1969
     2.3919   2.5020   2.7565   2.8791   3.0027   3.1225   3.2232   3.3389
     3.5759   3.6908   3.7627   3.9156   3.9341   4.0144   4.1609   4.2499
     5.5016   5.6368   5.7092   5.7893   5.9090   5.9747   6.0496   6.1103
     6.2581   6.3260   6.3709   6.4355   8.0005   8.1967   8.2732   8.3706
     8.4523   8.5239   8.5668   8.6617  10.3448  12.2227  12.7211  13.2169
    13.2919  13.3778

          k = 0.1667-0.2889 0.2320 ( 18610 PWs)   bands (ev):

   -66.1343 -66.1062 -66.0600 -66.0111 -36.2013 -36.1851 -36.1582 -36.1293
   -36.1203 -36.0961 -36.0799 -36.0627 -36.0570 -36.0500 -36.0236 -35.9892
   -11.1930  -9.7150  -9.6022  -9.1405  -9.0278  -9.0238  -8.9510  -8.9263
    -8.9123  -8.8206  -8.8054  -8.7829  -1.7492   0.3327   0.5315   0.6503
     0.7197   0.7860   0.9571   1.0625   1.0859   1.2236   1.2581   1.3753
     1.3926   1.4891   1.5308   1.6397   1.8578   1.9919   2.0462   2.2554
     2.3535   2.6007   2.7246   2.8645   2.9289   2.9553   3.1328   3.3751
     3.4116   3.5578   3.6896   3.7127   3.8234   3.9095   3.9713   4.1120
     5.5652   5.6563   5.7108   5.7258   5.8898   6.0959   6.1392   6.2163
     6.3038   6.4019   6.4257   6.4740   7.8455   8.0874   8.1435   8.2535
     8.3317   8.3959   8.5974   8.7011  10.4292  13.0165  13.2622  13.5209
    13.6963  13.8257

          k = 0.1667-0.2889-0.4682 ( 18628 PWs)   bands (ev):

   -66.1343 -66.1062 -66.0600 -66.0111 -36.2013 -36.1851 -36.1582 -36.1293
   -36.1203 -36.0961 -36.0799 -36.0627 -36.0570 -36.0501 -36.0236 -35.9892
   -11.1837  -9.6138  -9.5111  -9.2025  -9.0711  -9.0095  -8.9879  -8.9644
    -8.9243  -8.8735  -8.8216  -8.7824  -1.7469   0.2602   0.5006   0.6853
     0.7783   0.9375   1.0407   1.1101   1.1228   1.1612   1.2178   1.3221
     1.3377   1.4799   1.5126   1.7163   1.9116   2.0264   2.0582   2.2538
     2.3932   2.6770   2.7904   2.8511   2.9316   3.0304   3.2061   3.2423
     3.4007   3.4930   3.6017   3.6778   3.7726   3.9138   3.9659   3.9959
     5.5431   5.6714   5.7197   5.7565   5.8839   6.0847   6.1145   6.1643
     6.2871   6.3504   6.4002   6.4558   7.9246   8.1284   8.1824   8.3286
     8.3996   8.4531   8.5463   8.5578  10.4674  13.1048  13.3398  13.5944
    13.7289  13.9278

          k = 0.1667-0.2889-0.1181 ( 18626 PWs)   bands (ev):

   -66.1343 -66.1062 -66.0600 -66.0111 -36.2013 -36.1851 -36.1582 -36.1293
   -36.1203 -36.0961 -36.0799 -36.0627 -36.0570 -36.0501 -36.0236 -35.9892
   -11.1987  -9.7475  -9.6162  -9.1251  -9.0203  -8.9972  -8.9425  -8.9249
    -8.8646  -8.8269  -8.8149  -8.7978  -1.7773   0.2677   0.4010   0.5726
     0.6175   0.8477   0.9636   1.0917   1.1565   1.2002   1.2491   1.2755
     1.3432   1.4944   1.5341   1.6804   1.7014   1.9200   1.9912   2.2941
     2.3594   2.6725   2.7891   2.8273   2.9182   3.1493   3.2266   3.3749
     3.4921   3.6676   3.7099   3.7548   3.9219   3.9652   4.1217   4.2893
     5.5525   5.6937   5.7775   5.7976   5.8935   6.0404   6.0839   6.1128
     6.2212   6.3082   6.3498   6.3995   7.9513   8.1978   8.2827   8.3384
     8.3952   8.5246   8.5811   8.6682  10.3796  12.5836  12.8615  13.1112
    13.3420  13.5194

          k =-0.5000 0.0963 0.0042 ( 18623 PWs)   bands (ev):

   -66.1343 -66.1063 -66.0600 -66.0111 -36.2016 -36.1841 -36.1561 -36.1291
   -36.1240 -36.0956 -36.0808 -36.0619 -36.0556 -36.0509 -36.0228 -35.9903
   -11.1704  -9.5832  -9.3976  -9.3035  -9.1515  -9.0806  -8.9911  -8.9487
    -8.9156  -8.8284  -8.8125  -8.7801  -1.7018   0.2851   0.5861   0.6656
     0.7836   0.8746   0.9759   1.0415   1.0569   1.2092   1.2424   1.3290
     1.3843   1.4210   1.5502   1.7758   1.8719   1.9341   2.1856   2.3180
     2.4153   2.5419   2.5608   2.8437   3.0163   3.0974   3.1818   3.3170
     3.4107   3.4976   3.5594   3.7077   3.8211   3.9183   3.9716   4.0818
     5.5026   5.5316   5.6613   5.7883   5.9384   5.9972   6.0741   6.1600
     6.3451   6.4287   6.4806   6.4944   8.0024   8.1040   8.2268   8.2695
     8.3689   8.4133   8.5383   8.6536  10.4171  13.0617  13.3734  13.4896
    13.6053  13.7449

          k =-0.5000 0.0963-0.6961 ( 18660 PWs)   bands (ev):

   -66.1343 -66.1063 -66.0600 -66.0111 -36.2017 -36.1841 -36.1561 -36.1291
   -36.1240 -36.0956 -36.0808 -36.0620 -36.0556 -36.0510 -36.0228 -35.9903
   -11.1680  -9.5077  -9.3357  -9.2623  -9.1384  -9.0845  -9.0169  -8.9510
    -8.9381  -8.8977  -8.8690  -8.8181  -1.7225   0.1699   0.4263   0.6413
     0.7709   0.8119   0.8982   1.0363   1.0895   1.1196   1.1524   1.2552
     1.3613   1.7092   1.7388   1.8924   1.9662   2.0080   2.0875   2.3970
     2.4714   2.5636   2.6368   2.9198   3.0892   3.1473   3.1895   3.2497
     3.3646   3.5489   3.6364   3.8037   3.8257   3.9371   3.9963   4.0750
     5.4546   5.5352   5.6362   5.7005   5.9265   5.9938   6.0175   6.0923
     6.3196   6.3825   6.4160   6.5693   7.9606   8.1494   8.2206   8.4490
     8.4821   8.5004   8.6281   8.6825  10.3160  12.4625  12.8097  12.9718
    13.1529  13.5061

          k =-0.5000-0.2889 0.0042 ( 18636 PWs)   bands (ev):

   -66.1343 -66.1063 -66.0600 -66.0111 -36.2016 -36.1841 -36.1561 -36.1291
   -36.1240 -36.0957 -36.0804 -36.0626 -36.0555 -36.0507 -36.0228 -35.9903
   -11.1702  -9.5481  -9.4567  -9.2527  -9.2080  -9.0731  -8.9783  -8.9457
    -8.9272  -8.8181  -8.8060  -8.7778  -1.7068   0.2001   0.5237   0.6659
     0.7546   0.9038   0.9886   1.0345   1.0905   1.2209   1.2653   1.3242
     1.3492   1.5916   1.6482   1.9412   1.9668   2.1161   2.1471   2.2584
     2.2865   2.3985   2.5052   2.6161   2.7888   3.0638   3.1126   3.3972
     3.4257   3.5893   3.6381   3.6697   3.7674   3.9818   4.1288   4.1980
     5.4106   5.5045   5.5708   5.7067   5.9117   6.0363   6.1859   6.3044
     6.3509   6.3645   6.4592   6.5023   7.9527   8.0754   8.1957   8.2808
     8.3660   8.4500   8.5514   8.5978  10.4006  12.9497  13.3807  13.5401
    13.7673  13.7987

          k =-0.5000-0.2889-0.6961 ( 18708 PWs)   bands (ev):

   -66.1343 -66.1063 -66.0600 -66.0112 -36.2017 -36.1841 -36.1562 -36.1292
   -36.1240 -36.0957 -36.0804 -36.0626 -36.0555 -36.0508 -36.0228 -35.9904
   -11.1678  -9.4764  -9.3702  -9.2180  -9.2094  -9.0978  -8.9942  -8.9765
    -8.9361  -8.8685  -8.8538  -8.8173  -1.7291   0.0592   0.3139   0.6413
     0.8203   0.8569   0.9433   1.0659   1.1230   1.2033   1.2329   1.3464
     1.3603   1.6942   1.7282   1.9716   2.0318   2.0584   2.2506   2.2658
     2.3517   2.4830   2.5613   2.6181   2.8013   3.1035   3.1726   3.3343
     3.3733   3.6447   3.7019   3.7913   3.9083   4.0420   4.0923   4.1745
     5.3802   5.4977   5.5398   5.6667   5.9601   5.9940   6.1186   6.2128
     6.2257   6.3070   6.4750   6.5416   8.0082   8.1460   8.1822   8.3942
     8.4368   8.4911   8.6241   8.7194  10.3101  12.2649  12.6115  12.7692
    13.0626  13.9746

          k =-0.1667 0.0963-0.2320 ( 18618 PWs)   bands (ev):

   -66.1343 -66.1062 -66.0600 -66.0111 -36.2013 -36.1851 -36.1581 -36.1293
   -36.1203 -36.0960 -36.0801 -36.0624 -36.0571 -36.0501 -36.0236 -35.9892
   -11.1936  -9.7512  -9.5226  -9.2076  -9.0676  -8.9878  -8.9518  -8.9202
    -8.8781  -8.8294  -8.8156  -8.7758  -1.7496   0.3570   0.5135   0.6561
     0.7648   0.8522   0.9044   1.0333   1.1221   1.2122   1.2928   1.3965
     1.4325   1.4567   1.5691   1.6338   1.7858   1.9260   2.0675   2.2243
     2.2856   2.4644   2.5636   2.7767   2.8941   3.0695   3.2720   3.3939
     3.4993   3.5815   3.6353   3.8445   3.8672   3.9519   4.0363   4.1074
     5.5121   5.6466   5.7115   5.7743   5.8692   5.9942   6.0408   6.1496
     6.3350   6.3858   6.4784   6.5400   7.9069   8.0712   8.1850   8.2858
     8.3549   8.4482   8.5571   8.6777  10.4083  12.5638  13.0918  13.3351
    13.4571  13.7876

          k =-0.1667 0.0963 0.4682 ( 18621 PWs)   bands (ev):

   -66.1343 -66.1062 -66.0600 -66.0111 -36.2013 -36.1851 -36.1582 -36.1293
   -36.1203 -36.0960 -36.0801 -36.0624 -36.0571 -36.0502 -36.0236 -35.9892
   -11.1842  -9.6544  -9.4329  -9.2134  -9.0956  -9.0295  -9.0077  -8.9399
    -8.9266  -8.8590  -8.8302  -8.7735  -1.7462   0.2967   0.5407   0.6826
     0.7822   0.9237   1.0090   1.1037   1.1223   1.1963   1.2921   1.3276
     1.3927   1.4487   1.4994   1.6541   1.8019   1.9246   2.0560   2.2579
     2.4501   2.5409   2.7147   2.8495   2.9102   3.0881   3.1493   3.3261
     3.3742   3.6020   3.6566   3.7373   3.8582   3.8742   3.9882   4.0726
     5.5117   5.6563   5.7311   5.7979   5.8795   5.9728   6.0240   6.1328
     6.2839   6.3586   6.4285   6.4899   7.9600   8.1191   8.2448   8.3224
     8.4076   8.4638   8.5050   8.6090  10.4570  13.2424  13.3479  13.5407
    13.6537  13.7596

          k =-0.1667 0.0963 0.1181 ( 18613 PWs)   bands (ev):

   -66.1343 -66.1062 -66.0600 -66.0111 -36.2013 -36.1851 -36.1581 -36.1293
   -36.1203 -36.0960 -36.0801 -36.0624 -36.0571 -36.0501 -36.0236 -35.9892
   -11.1995  -9.7779  -9.5469  -9.1661  -9.0722  -8.9906  -8.9381  -8.9118
    -8.8438  -8.8274  -8.8125  -8.7905  -1.7776   0.2740   0.3797   0.5751
     0.7416   0.9356   1.0332   1.0646   1.1062   1.1690   1.1983   1.2911
     1.3743   1.3903   1.5046   1.5799   1.7421   1.8324   2.0826   2.2002
     2.4094   2.5131   2.7806   2.8007   2.9824   3.1542   3.2734   3.3121
     3.5738   3.6786   3.7468   3.8996   3.9388   4.0403   4.1581   4.2392
     5.5288   5.6352   5.7157   5.7851   5.8935   5.9492   6.0524   6.1352
     6.2678   6.3198   6.3782   6.4230   7.9869   8.2285   8.2671   8.3571
     8.4510   8.5216   8.5920   8.6400  10.3552  12.1989  12.7153  13.2003
    13.2825  13.4601

          k = 0.5000 0.0963-0.0042 ( 18623 PWs)   bands (ev):

   -66.1343 -66.1063 -66.0600 -66.0111 -36.2016 -36.1841 -36.1561 -36.1291
   -36.1240 -36.0955 -36.0808 -36.0620 -36.0556 -36.0509 -36.0228 -35.9903
   -11.1704  -9.5782  -9.4125  -9.2918  -9.1536  -9.0790  -9.0007  -8.9395
    -8.9102  -8.8388  -8.8132  -8.7753  -1.7027   0.2953   0.5754   0.6745
     0.7747   0.8606   0.9915   1.0158   1.0950   1.1949   1.2725   1.3136
     1.3828   1.4314   1.5369   1.7540   1.8712   1.9336   2.1707   2.3550
     2.3783   2.5402   2.5964   2.8978   2.9686   3.0794   3.1870   3.3194
     3.4063   3.4520   3.6169   3.7047   3.8135   3.9092   3.9825   4.0864
     5.4957   5.5539   5.6708   5.7442   5.9476   5.9805   6.1059   6.1626
     6.3329   6.4216   6.4697   6.5119   7.9845   8.1066   8.2303   8.2971
     8.3690   8.4065   8.5235   8.6586  10.4213  13.0568  13.3749  13.4952
    13.6381  13.7233

     the Fermi energy is     6.4377 ev

!    total energy              =   -1205.40914245 Ry
     Harris-Foulkes estimate   =   -1205.40914245 Ry
     estimated scf accuracy    <          2.4E-11 Ry

     The total energy is the sum of the following terms:

     one-electron contribution =    -659.25961390 Ry
     hartree contribution      =     383.92896205 Ry
     xc contribution           =    -246.56543729 Ry
     ewald contribution        =    -683.49686077 Ry
     smearing contrib. (-TS)   =      -0.01619256 Ry

     convergence has been achieved in  11 iterations

     Forces acting on atoms (Ry/au):

     atom    1 type  1   force =    -0.00001725    0.00000536   -0.00002883
     atom    2 type  1   force =    -0.00002972   -0.00000919   -0.00001173
     atom    3 type  1   force =    -0.00003427    0.00002773    0.00004948
     atom    4 type  1   force =     0.00000931    0.00000898    0.00001055
     atom    5 type  2   force =    -0.00000157    0.00000669    0.00000204
     atom    6 type  2   force =     0.00002907   -0.00001540   -0.00005503
     atom    7 type  2   force =     0.00002749   -0.00007536    0.00003530
     atom    8 type  2   force =    -0.00002101    0.00003166   -0.00001002
     atom    9 type  2   force =     0.00000999    0.00005374    0.00002838
     atom   10 type  2   force =     0.00003491    0.00000164   -0.00001553
     atom   11 type  2   force =    -0.00002098    0.00001033   -0.00000811
     atom   12 type  2   force =    -0.00002009   -0.00000915    0.00004829
     atom   13 type  2   force =    -0.00001081    0.00001044   -0.00000965
     atom   14 type  2   force =    -0.00001175   -0.00000438   -0.00000310
     atom   15 type  2   force =     0.00002927   -0.00005979    0.00000729
     atom   16 type  2   force =     0.00002909    0.00002350   -0.00002849
     atom   17 type  3   force =    -0.00000168   -0.00000680   -0.00001084

     Total force =     0.000191     Total SCF correction =     0.000016


     entering subroutine stress ...

          total   stress  (Ry/bohr**3)                   (kbar)     P=   15.48
   0.00007482   0.00001815  -0.00000203         11.01      2.67     -0.30
   0.00001815   0.00010897  -0.00000127          2.67     16.03     -0.19
  -0.00000203  -0.00000127   0.00013200         -0.30     -0.19     19.42


     bfgs converged in  97 scf cycles and  96 bfgs steps
     (criteria: energy <  1.0E-05, force <  1.0E-04)

     End of BFGS Geometry Optimization

     Final energy   =   -1205.4091424523 Ry
Begin final coordinates

ATOMIC_POSITIONS (crystal)
Ru       0.020667696   0.338372171  -0.008589615
Ru       0.001774239   0.671466900  -0.013650516
Ru       0.484503133   0.834759657  -0.011669144
Ru       0.513441234   0.171247501  -0.006927765
Cl       0.775763078   0.170478403   0.760116968
Cl       0.241779147   0.832732068   0.229218235
Cl       0.271527247   0.181542606   0.232668588
Cl       0.737276188   0.827918156   0.752224847
Cl       0.242844730   0.676535169   0.743862168
Cl       0.769371186   0.324171595   0.220854281
Cl       0.740688841   0.678016337   0.207675698
Cl       0.272804775   0.335027809   0.758322539
Cl       0.723592071  -0.001236887   0.220552732
Cl       0.245416527   0.009213315   0.746370715
Cl       0.236303846   0.507603504   0.223243622
Cl       0.784481941   0.501552339   0.754072528
XXMU       0.037764122   0.040599357   0.791654118
End final coordinates



     Writing output data file a-RuCl3.mu1.rel.1x1x1.100100600.save
 
     init_run     :      6.82s CPU      7.53s WALL (       1 calls)
     electrons    :  15139.38s CPU  16260.63s WALL (      97 calls)
     update_pot   :    346.07s CPU    371.75s WALL (      96 calls)
     forces       :    439.93s CPU    448.62s WALL (      97 calls)
     stress       :   1391.52s CPU   1417.63s WALL (      97 calls)

     Called by init_run:
     wfcinit      :      2.37s CPU      2.70s WALL (       1 calls)
     potinit      :      1.45s CPU      1.47s WALL (       1 calls)

     Called by electrons:
     c_bands      :  12123.05s CPU  12846.76s WALL (    1568 calls)
     sum_band     :   2335.14s CPU   2562.55s WALL (    1568 calls)
     v_of_rho     :    124.52s CPU    145.19s WALL (    1648 calls)
     newd         :    563.26s CPU    655.54s WALL (    1648 calls)
     mix_rho      :     16.34s CPU     20.85s WALL (    1568 calls)

     Called by c_bands:
     init_us_2    :    120.72s CPU    129.14s WALL (   46634 calls)
     cegterg      :  11486.80s CPU  12192.53s WALL (   21952 calls)

     Called by sum_band:
     sum_band:bec :      5.26s CPU      7.11s WALL (   21952 calls)
     addusdens    :    723.89s CPU    851.77s WALL (    1568 calls)

     Called by *egterg:
     h_psi        :   6644.74s CPU   7087.58s WALL (   75640 calls)
     s_psi        :    857.86s CPU    873.39s WALL (   75640 calls)
     g_psi        :     41.34s CPU     43.12s WALL (   53674 calls)
     cdiaghg      :   1784.69s CPU   1787.72s WALL (   74044 calls)

     Called by h_psi:
     h_psi:pot    :   6571.16s CPU   7013.54s WALL (   75640 calls)
     h_psi:calbec :   1003.87s CPU    999.76s WALL (   75640 calls)
     vloc_psi     :   4698.74s CPU   5126.92s WALL (   75640 calls)
     add_vuspsi   :    868.02s CPU    886.30s WALL (   75640 calls)

     General routines
     calbec       :   1530.62s CPU   1524.06s WALL (  104382 calls)
     fft          :     95.72s CPU    114.43s WALL (   28569 calls)
     ffts         :      2.29s CPU      2.77s WALL (    3216 calls)
     fftw         :   4833.07s CPU   5368.99s WALL (11284720 calls)
     interpolate  :     12.45s CPU     18.46s WALL (    3216 calls)
 
     Parallel routines
     fft_scatter  :   1601.77s CPU   1725.66s WALL (11316505 calls)
 
     PWSCF        :     4h49m CPU        5h10m WALL

 
   This run was terminated on:  23:39:42  22Feb2018            

=------------------------------------------------------------------------------=
   JOB DONE.
=------------------------------------------------------------------------------=
