
     Program PWSCF v.6.0 (svn rev. 13079) starts on 18Mar2018 at 16:33:35 

     This program is part of the open-source Quantum ESPRESSO suite
     for quantum simulation of materials; please cite
         "P. Giannozzi et al., J. Phys.:Condens. Matter 21 395502 (2009);
          URL http://www.quantum-espresso.org", 
     in publications or presentations arising from this work. More details at
     http://www.quantum-espresso.org/quote

     Parallel version (MPI), running on    16 processors
     R & G space division:  proc/nbgrp/npool/nimage =      16
     Waiting for input...
     Reading input from standard input

     Current dimensions of program PWSCF are:
     Max number of different atomic species (ntypx) = 10
     Max number of k-points (npk) =  40000
     Max angular momentum in pseudopotentials (lmaxx) =  3
               file Pb.pbe-dn-rrkjus_psl.1.0.0.UPF: wavefunction(s)  6S 5D renormalized
               file Co.pbe-nd-rrkjus.UPF: wavefunction(s)  4S 3D renormalized
               file O.pbe-rrkjus.UPF: wavefunction(s)  2S renormalized

     Subspace diagonalization in iterative solution of the eigenvalue problem:
     a serial algorithm will be used

 
     Parallelization info
     --------------------
     sticks:   dense  smooth     PW     G-vecs:    dense   smooth      PW
     Min         447     178     49                39678    10034    1462
     Max         448     179     50                39684    10037    1466
     Sum        7153    2861    793               634889   160567   23415
 


     bravais-lattice index     =          -12
     lattice parameter (alat)  =      10.6515  a.u.
     unit-cell volume          =    1661.5166 (a.u.)^3
     number of atoms/cell      =           21
     number of atomic types    =            5
     number of electrons       =       179.00
     number of Kohn-Sham states=          108
     kinetic-energy cutoff     =      80.0000  Ry
     charge density cutoff     =     800.0000  Ry
     convergence threshold     =      1.0E-10
     mixing beta               =       0.7000
     number of iterations used =            8  plain     mixing
     Exchange-correlation      =  SLA  PW   PBX  PBC ( 1  4  3  4 0 0)
     nstep                     =          500


     celldm(1)=  10.651460  celldm(2)=   0.990615  celldm(3)=   1.387953
     celldm(4)=   0.000000  celldm(5)=   0.003229  celldm(6)=   0.000000

     crystal axes: (cart. coord. in units of alat)
               a(1) = (   1.000000   0.000000   0.000000 )  
               a(2) = (   0.000000   0.990615   0.000000 )  
               a(3) = (   0.004481   0.000000   1.387946 )  

     reciprocal axes: (cart. coord. in units 2 pi/alat)
               b(1) = (  1.000000  0.000000 -0.003229 )  
               b(2) = (  0.000000  1.009474  0.000000 )  
               b(3) = (  0.000000  0.000000  0.720489 )  


     PseudoPot. # 1 for Pb read from file:
     /home/phys-musr/mert2601/pseudo/Pb.pbe-dn-rrkjus_psl.1.0.0.UPF
     MD5 check sum: 2b6b9e196840e0193c308501b9d7f8a8
     Pseudo is Ultrasoft + core correction, Zval = 14.0
     Generated using "atomic" code by A. Dal Corso  v.5.0.2 svn rev. 9656
     Using radial grid of 1281 points,  6 beta functions with: 
                l(1) =   0
                l(2) =   0
                l(3) =   1
                l(4) =   1
                l(5) =   2
                l(6) =   2
     Q(r) pseudized with 0 coefficients 


     PseudoPot. # 2 for Co read from file:
     /home/phys-musr/mert2601/pseudo/Co.pbe-nd-rrkjus.UPF
     MD5 check sum: 3e47a84addf5e975e0edeaeee2a73f59
     Pseudo is Ultrasoft + core correction, Zval =  9.0
     Generated by new atomic code, or converted to UPF format
     Using radial grid of  961 points,  6 beta functions with: 
                l(1) =   0
                l(2) =   0
                l(3) =   1
                l(4) =   1
                l(5) =   2
                l(6) =   2
     Q(r) pseudized with 0 coefficients 


     PseudoPot. # 3 for Os read from file:
     /home/phys-musr/mert2601/pseudo/Os.pbe-spn-rrkjus_psl.1.0.0.UPF
     MD5 check sum: 1900630a666269e0fb52cec33d227dc5
     Pseudo is Ultrasoft + core correction, Zval = 16.0
     Generated using "atomic" code by A. Dal Corso  v.5.0.2 svn rev. 9656
     Using radial grid of 1275 points,  6 beta functions with: 
                l(1) =   0
                l(2) =   0
                l(3) =   1
                l(4) =   1
                l(5) =   2
                l(6) =   2
     Q(r) pseudized with 0 coefficients 


     PseudoPot. # 4 for O  read from file:
     /home/phys-musr/mert2601/pseudo/O.pbe-rrkjus.UPF
     MD5 check sum: 390ba29e75625707450f3bd3f0eb6be9
     Pseudo is Ultrasoft, Zval =  6.0
     Generated by new atomic code, or converted to UPF format
     Using radial grid of 1269 points,  4 beta functions with: 
                l(1) =   0
                l(2) =   0
                l(3) =   1
                l(4) =   1
     Q(r) pseudized with 0 coefficients 


     PseudoPot. # 5 for H  read from file:
     /home/phys-musr/mert2601/pseudo/H.pbe-tm-dc.UPF
     MD5 check sum: c7e992f3be35a5ba2152290168345934
     Pseudo is Norm-conserving, Zval =  1.0
     Generated by new atomic code, or converted to UPF format
     Using radial grid of  929 points,  0 beta functions with: 

     atomic species   valence    mass     pseudopotential
        Pb1           14.00   207.20000     Pb( 1.00)
        Co1            9.00    58.93000     Co( 1.00)
        Os1           16.00   190.23000     Os( 1.00)
        O1             6.00    15.99900     O ( 1.00)
        XMU             1.00     0.11343     H ( 1.00)

     No symmetry found



   Cartesian axes

     site n.     atom                  positions (alat units)
         1           Pb1 tau(   1) = (   0.0069235   0.5069966   0.3479580  )
         2           Pb1 tau(   2) = (   0.9975580   0.4836181   1.0399876  )
         3           Pb1 tau(   3) = (   0.4953172   0.0116893   0.3460148  )
         4           Pb1 tau(   4) = (   0.5091643   0.9789255   1.0419308  )
         5           Co1 tau(   5) = (   0.0000000   0.0000000   0.0000000  )
         6           Co1 tau(   6) = (   0.5022407   0.4953074   0.6939728  )
         7           Os1 tau(   7) = (   0.0022407   0.0000000   0.6939728  )
         8           Os1 tau(   8) = (   0.5000000   0.4953074   0.0000000  )
         9           O1  tau(   9) = (   0.9350567   0.9813030   0.3582288  )
        10           O1  tau(  10) = (   0.0694248   0.0093118   1.0297168  )
        11           O1  tau(  11) = (   0.5671841   0.4859956   0.3357440  )
        12           O1  tau(  12) = (   0.4372974   0.5046192   1.0522016  )
        13           O1  tau(  13) = (   0.2413586   0.2795515   0.0491333  )
        14           O1  tau(  14) = (   0.7631228   0.7110633   1.3388123  )
        15           O1  tau(  15) = (   0.2608821   0.7748589   0.6448395  )
        16           O1  tau(  16) = (   0.7435994   0.2157559   0.7431061  )
        17           O1  tau(  17) = (   0.2824636   0.7574240   0.0506600  )
        18           O1  tau(  18) = (   0.7220179   0.2331907   1.3372856  )
        19           O1  tau(  19) = (   0.2197772   0.2621167   0.6433128  )
        20           O1  tau(  20) = (   0.7847043   0.7284981   0.7446328  )
        21           XMU  tau(  21) = (   0.0373080   0.6944209   0.7147920  )

     number of k points=    14  gaussian smearing, width (Ry)=  0.0200
                       cart. coord. in units 2pi/alat
        k(    1) = (   0.1666667   0.1682457   0.1195434), wk =   0.1481481
        k(    2) = (   0.1666667   0.1682457  -0.3607828), wk =   0.1481481
        k(    3) = (   0.1666667   0.1682457  -0.1206197), wk =   0.1481481
        k(    4) = (   0.1666667  -0.5047371   0.1195434), wk =   0.1481481
        k(    5) = (   0.1666667  -0.5047371  -0.3607828), wk =   0.1481481
        k(    6) = (   0.1666667  -0.5047371  -0.1206197), wk =   0.1481481
        k(    7) = (  -0.5000000   0.1682457   0.1216960), wk =   0.1481481
        k(    8) = (  -0.5000000   0.1682457  -0.3586302), wk =   0.1481481
        k(    9) = (  -0.5000000  -0.5047371   0.1216960), wk =   0.1481481
        k(   10) = (  -0.5000000  -0.5047371  -0.3586302), wk =   0.0740741
        k(   11) = (  -0.1666667   0.1682457  -0.1195434), wk =   0.1481481
        k(   12) = (  -0.1666667   0.1682457   0.3607828), wk =   0.1481481
        k(   13) = (  -0.1666667   0.1682457   0.1206197), wk =   0.1481481
        k(   14) = (   0.5000000   0.1682457  -0.1216960), wk =   0.1481481

     Dense  grid:   634889 G-vectors     FFT dimensions: (  96,  96, 135)

     Smooth grid:   160567 G-vectors     FFT dimensions: (  64,  64,  90)

     Estimated max dynamical RAM per process >      82.00Mb

     Estimated total allocated dynamical RAM >    1311.97Mb

     Check: negative/imaginary core charge=   -0.000005    0.000000

     Initial potential from superposition of free atoms

     starting charge  178.08905, renormalised to  179.00000
     Starting wfc are  117 randomized atomic wfcs

     total cpu time spent up to now is       13.4 secs

     Self-consistent Calculation

     iteration #  1     ecut=    80.00 Ry     beta=0.70
     Davidson diagonalization with overlap
     ethr =  1.00E-02,  avg # of iterations =  2.0

     total cpu time spent up to now is       25.4 secs

     total energy              =   -1434.61475073 Ry
     Harris-Foulkes estimate   =   -1476.80146942 Ry
     estimated scf accuracy    <      48.87434904 Ry

     iteration #  2     ecut=    80.00 Ry     beta=0.70
     Davidson diagonalization with overlap
     ethr =  1.00E-02,  avg # of iterations =  7.0

     total cpu time spent up to now is       52.0 secs

     total energy              =   -1382.71089567 Ry
     Harris-Foulkes estimate   =   -1604.01258329 Ry
     estimated scf accuracy    <    1050.04841934 Ry

     iteration #  3     ecut=    80.00 Ry     beta=0.70
     Davidson diagonalization with overlap
     ethr =  1.00E-02,  avg # of iterations =  7.6

     total cpu time spent up to now is       77.5 secs

     total energy              =   -1464.19433867 Ry
     Harris-Foulkes estimate   =   -1493.74061416 Ry
     estimated scf accuracy    <     123.28210514 Ry

     iteration #  4     ecut=    80.00 Ry     beta=0.70
     Davidson diagonalization with overlap
     ethr =  1.00E-02,  avg # of iterations =  3.0

     total cpu time spent up to now is       91.7 secs

     total energy              =   -1473.11406524 Ry
     Harris-Foulkes estimate   =   -1476.51061686 Ry
     estimated scf accuracy    <      26.35575021 Ry

     iteration #  5     ecut=    80.00 Ry     beta=0.70
     Davidson diagonalization with overlap
     ethr =  1.00E-02,  avg # of iterations =  1.3

     total cpu time spent up to now is      101.9 secs

     total energy              =   -1472.53065417 Ry
     Harris-Foulkes estimate   =   -1475.40625704 Ry
     estimated scf accuracy    <      35.79888768 Ry

     iteration #  6     ecut=    80.00 Ry     beta=0.70
     Davidson diagonalization with overlap
     ethr =  1.00E-02,  avg # of iterations =  1.0

     total cpu time spent up to now is      111.9 secs

     total energy              =   -1473.22379477 Ry
     Harris-Foulkes estimate   =   -1474.13356039 Ry
     estimated scf accuracy    <      12.16202787 Ry

     iteration #  7     ecut=    80.00 Ry     beta=0.70
     Davidson diagonalization with overlap
     ethr =  6.79E-03,  avg # of iterations =  1.0

     total cpu time spent up to now is      121.9 secs

     total energy              =   -1472.53877146 Ry
     Harris-Foulkes estimate   =   -1473.39633987 Ry
     estimated scf accuracy    <       6.69668198 Ry

     iteration #  8     ecut=    80.00 Ry     beta=0.70
     Davidson diagonalization with overlap
     ethr =  3.74E-03,  avg # of iterations =  1.0

     total cpu time spent up to now is      131.9 secs

     total energy              =   -1472.73238900 Ry
     Harris-Foulkes estimate   =   -1472.99719782 Ry
     estimated scf accuracy    <       1.72931521 Ry

     iteration #  9     ecut=    80.00 Ry     beta=0.70
     Davidson diagonalization with overlap
     ethr =  9.66E-04,  avg # of iterations =  1.1

     total cpu time spent up to now is      142.0 secs

     total energy              =   -1472.74846070 Ry
     Harris-Foulkes estimate   =   -1472.96415179 Ry
     estimated scf accuracy    <       4.01237620 Ry

     iteration # 10     ecut=    80.00 Ry     beta=0.70
     Davidson diagonalization with overlap
     ethr =  9.66E-04,  avg # of iterations =  1.2

     total cpu time spent up to now is      152.1 secs

     total energy              =   -1472.75701132 Ry
     Harris-Foulkes estimate   =   -1472.91949427 Ry
     estimated scf accuracy    <       2.10665820 Ry

     iteration # 11     ecut=    80.00 Ry     beta=0.70
     Davidson diagonalization with overlap
     ethr =  9.66E-04,  avg # of iterations =  1.0

     total cpu time spent up to now is      162.1 secs

     total energy              =   -1472.82098243 Ry
     Harris-Foulkes estimate   =   -1472.91265874 Ry
     estimated scf accuracy    <       1.01924460 Ry

     iteration # 12     ecut=    80.00 Ry     beta=0.70
     Davidson diagonalization with overlap
     ethr =  5.69E-04,  avg # of iterations =  1.3

     total cpu time spent up to now is      172.3 secs

     total energy              =   -1472.86009598 Ry
     Harris-Foulkes estimate   =   -1472.87354415 Ry
     estimated scf accuracy    <       0.19073811 Ry

     iteration # 13     ecut=    80.00 Ry     beta=0.70
     Davidson diagonalization with overlap
     ethr =  1.07E-04,  avg # of iterations =  6.0

     total cpu time spent up to now is      186.5 secs

     total energy              =   -1472.86493480 Ry
     Harris-Foulkes estimate   =   -1472.86830901 Ry
     estimated scf accuracy    <       0.01068831 Ry

     iteration # 14     ecut=    80.00 Ry     beta=0.70
     Davidson diagonalization with overlap
     ethr =  5.97E-06,  avg # of iterations =  5.4

     total cpu time spent up to now is      201.8 secs

     total energy              =   -1472.86612093 Ry
     Harris-Foulkes estimate   =   -1472.86760671 Ry
     estimated scf accuracy    <       0.01478306 Ry

     iteration # 15     ecut=    80.00 Ry     beta=0.70
     Davidson diagonalization with overlap
     ethr =  5.97E-06,  avg # of iterations =  1.2

     total cpu time spent up to now is      212.0 secs

     total energy              =   -1472.86617485 Ry
     Harris-Foulkes estimate   =   -1472.86737246 Ry
     estimated scf accuracy    <       0.01622386 Ry

     iteration # 16     ecut=    80.00 Ry     beta=0.70
     Davidson diagonalization with overlap
     ethr =  5.97E-06,  avg # of iterations =  1.0

     total cpu time spent up to now is      222.0 secs

     total energy              =   -1472.86665536 Ry
     Harris-Foulkes estimate   =   -1472.86698910 Ry
     estimated scf accuracy    <       0.00230999 Ry

     iteration # 17     ecut=    80.00 Ry     beta=0.70
     Davidson diagonalization with overlap
     ethr =  1.29E-06,  avg # of iterations =  1.0

     total cpu time spent up to now is      232.0 secs

     total energy              =   -1472.86680771 Ry
     Harris-Foulkes estimate   =   -1472.86685115 Ry
     estimated scf accuracy    <       0.00016886 Ry

     iteration # 18     ecut=    80.00 Ry     beta=0.70
     Davidson diagonalization with overlap
     ethr =  9.43E-08,  avg # of iterations =  2.3

     total cpu time spent up to now is      244.2 secs

     total energy              =   -1472.86680887 Ry
     Harris-Foulkes estimate   =   -1472.86685957 Ry
     estimated scf accuracy    <       0.00041059 Ry

     iteration # 19     ecut=    80.00 Ry     beta=0.70
     Davidson diagonalization with overlap
     ethr =  9.43E-08,  avg # of iterations =  1.3

     total cpu time spent up to now is      254.4 secs

     total energy              =   -1472.86683140 Ry
     Harris-Foulkes estimate   =   -1472.86684013 Ry
     estimated scf accuracy    <       0.00020351 Ry

     iteration # 20     ecut=    80.00 Ry     beta=0.70
     Davidson diagonalization with overlap
     ethr =  9.43E-08,  avg # of iterations =  1.0

     total cpu time spent up to now is      264.4 secs

     total energy              =   -1472.86683451 Ry
     Harris-Foulkes estimate   =   -1472.86683654 Ry
     estimated scf accuracy    <       0.00001325 Ry

     iteration # 21     ecut=    80.00 Ry     beta=0.70
     Davidson diagonalization with overlap
     ethr =  7.40E-09,  avg # of iterations =  2.0

     total cpu time spent up to now is      275.2 secs

     total energy              =   -1472.86683520 Ry
     Harris-Foulkes estimate   =   -1472.86683650 Ry
     estimated scf accuracy    <       0.00000839 Ry

     iteration # 22     ecut=    80.00 Ry     beta=0.70
     Davidson diagonalization with overlap
     ethr =  4.68E-09,  avg # of iterations =  1.1

     total cpu time spent up to now is      285.2 secs

     total energy              =   -1472.86683579 Ry
     Harris-Foulkes estimate   =   -1472.86683588 Ry
     estimated scf accuracy    <       0.00000058 Ry

     iteration # 23     ecut=    80.00 Ry     beta=0.70
     Davidson diagonalization with overlap
     ethr =  3.24E-10,  avg # of iterations =  2.0

     total cpu time spent up to now is      296.4 secs

     total energy              =   -1472.86683582 Ry
     Harris-Foulkes estimate   =   -1472.86683588 Ry
     estimated scf accuracy    <       0.00000056 Ry

     iteration # 24     ecut=    80.00 Ry     beta=0.70
     Davidson diagonalization with overlap
     ethr =  3.12E-10,  avg # of iterations =  1.0

     total cpu time spent up to now is      306.3 secs

     total energy              =   -1472.86683584 Ry
     Harris-Foulkes estimate   =   -1472.86683585 Ry
     estimated scf accuracy    <       0.00000004 Ry

     iteration # 25     ecut=    80.00 Ry     beta=0.70
     Davidson diagonalization with overlap
     ethr =  2.32E-11,  avg # of iterations =  2.0

     total cpu time spent up to now is      318.6 secs

     total energy              =   -1472.86683583 Ry
     Harris-Foulkes estimate   =   -1472.86683586 Ry
     estimated scf accuracy    <       0.00000029 Ry

     iteration # 26     ecut=    80.00 Ry     beta=0.70
     Davidson diagonalization with overlap
     ethr =  2.32E-11,  avg # of iterations =  2.0

     total cpu time spent up to now is      329.6 secs

     total energy              =   -1472.86683585 Ry
     Harris-Foulkes estimate   =   -1472.86683585 Ry
     estimated scf accuracy    <       0.00000003 Ry

     iteration # 27     ecut=    80.00 Ry     beta=0.70
     Davidson diagonalization with overlap
     ethr =  1.58E-11,  avg # of iterations =  1.0

     total cpu time spent up to now is      339.5 secs

     total energy              =   -1472.86683585 Ry
     Harris-Foulkes estimate   =   -1472.86683585 Ry
     estimated scf accuracy    <       0.00000002 Ry

     iteration # 28     ecut=    80.00 Ry     beta=0.70
     Davidson diagonalization with overlap
     ethr =  8.51E-12,  avg # of iterations =  1.0

     total cpu time spent up to now is      349.5 secs

     total energy              =   -1472.86683585 Ry
     Harris-Foulkes estimate   =   -1472.86683585 Ry
     estimated scf accuracy    <          9.0E-10 Ry

     iteration # 29     ecut=    80.00 Ry     beta=0.70
     Davidson diagonalization with overlap
     ethr =  5.02E-13,  avg # of iterations =  2.0

     total cpu time spent up to now is      360.4 secs

     total energy              =   -1472.86683585 Ry
     Harris-Foulkes estimate   =   -1472.86683585 Ry
     estimated scf accuracy    <          2.0E-09 Ry

     iteration # 30     ecut=    80.00 Ry     beta=0.70
     Davidson diagonalization with overlap
     ethr =  5.02E-13,  avg # of iterations =  2.0

     total cpu time spent up to now is      371.2 secs

     total energy              =   -1472.86683585 Ry
     Harris-Foulkes estimate   =   -1472.86683585 Ry
     estimated scf accuracy    <          1.1E-09 Ry

     iteration # 31     ecut=    80.00 Ry     beta=0.70
     Davidson diagonalization with overlap
     ethr =  5.02E-13,  avg # of iterations =  1.0

     total cpu time spent up to now is      381.1 secs

     End of self-consistent calculation

          k = 0.1667 0.1682 0.1195 ( 20076 PWs)   bands (ev):

   -75.5074 -75.2394 -34.9245 -34.8473 -34.8128 -34.7620 -34.6743 -34.5981
    -7.9563  -7.0472  -6.9536  -6.5300  -6.3164  -6.2196  -6.0601  -5.9967
    -5.9431  -5.8594  -5.8324  -5.7898  -4.2992  -4.2582  -4.2284  -4.2030
    -4.1867  -4.1670  -4.1580  -4.1526  -4.1340  -4.1031  -4.0913  -4.0722
    -4.0531  -4.0239  -4.0015  -3.9804  -3.9054  -3.8611  -3.8317  -3.8142
     2.3349   3.8247   4.0237   4.0943   4.5714   4.8700   5.2023   5.4275
     5.5194   5.6112   5.7809   6.0122   6.3086   6.4054   6.6425   6.8363
     7.1116   7.2559   7.3660   7.5134   7.8559   7.9407   8.2372   8.4125
     8.6880   8.7315   8.9104   9.0537   9.1536   9.2414   9.3870   9.4896
     9.5284   9.6988   9.8263  10.0270  10.1482  10.2834  10.5386  10.9056
    11.3422  11.4839  11.6231  11.6903  12.0849  12.1443  12.2572  12.4168
    12.6046  12.6770  12.8221  12.9181  13.0959  13.1794  13.2552  13.3975
    14.2348  16.0153  16.3457  16.8649  16.9680  17.0246  17.2474  17.3190
    17.5710  17.6020  17.8404  17.9644

          k = 0.1667 0.1682-0.3608 ( 20081 PWs)   bands (ev):

   -75.5074 -75.2394 -34.9245 -34.8473 -34.8128 -34.7619 -34.6744 -34.5981
    -7.9415  -7.0491  -6.9532  -6.4781  -6.2999  -6.2428  -6.1487  -5.9892
    -5.9594  -5.8584  -5.8289  -5.7846  -4.2918  -4.2403  -4.2365  -4.1898
    -4.1810  -4.1698  -4.1574  -4.1474  -4.1376  -4.1174  -4.0638  -4.0437
    -4.0313  -4.0131  -3.9883  -3.9400  -3.9379  -3.8941  -3.8749  -3.8601
     2.3863   3.6324   4.0865   4.1333   4.6316   5.1452   5.2937   5.4368
     5.5778   5.6826   5.9099   5.9975   6.1746   6.1939   6.5552   6.9446
     7.0715   7.3291   7.3525   7.4523   7.6091   7.7893   8.2762   8.4137
     8.5088   8.6937   8.7967   8.9367   9.1033   9.2209   9.3657   9.4679
     9.7233   9.7877   9.8861   9.9665  10.1387  10.2395  10.5904  10.6813
    11.4673  11.6405  11.9409  11.9524  12.0350  12.0474  12.2876  12.4118
    12.6244  12.6852  12.7859  12.9436  12.9732  13.1455  13.2513  13.2790
    14.9718  15.9862  16.4843  16.5543  16.7139  16.8978  17.1899  17.4335
    17.5657  17.5880  17.7935  17.8966

          k = 0.1667 0.1682-0.1206 ( 20064 PWs)   bands (ev):

   -75.5074 -75.2394 -34.9245 -34.8473 -34.8128 -34.7619 -34.6743 -34.5981
    -7.9550  -7.0597  -6.9462  -6.5291  -6.3215  -6.2147  -6.0624  -5.9896
    -5.9075  -5.8619  -5.8425  -5.8150  -4.2921  -4.2596  -4.2244  -4.2073
    -4.1883  -4.1691  -4.1596  -4.1498  -4.1330  -4.1054  -4.0839  -4.0667
    -4.0532  -4.0157  -3.9995  -3.9801  -3.9211  -3.8604  -3.8397  -3.8172
     2.3478   3.7121   3.8767   4.3534   4.6103   4.9510   5.2596   5.4032
     5.4891   5.6400   5.7950   5.9511   6.0519   6.5300   6.7105   6.8603
     6.9793   7.2243   7.3327   7.4633   7.8986   8.1093   8.2080   8.3583
     8.6326   8.7190   8.9355   8.9794   9.1771   9.1986   9.4006   9.5089
     9.5491   9.7420   9.9126  10.1446  10.2096  10.3119  10.5286  10.8138
    11.2293  11.4940  11.6203  11.6952  12.0770  12.1439  12.2859  12.4302
    12.5742  12.7174  12.7803  12.9125  13.0478  13.1223  13.2274  13.4651
    14.3744  16.0460  16.3891  16.7363  16.8133  17.0484  17.2156  17.3374
    17.5013  17.6453  17.8674  17.9836

          k = 0.1667-0.5047 0.1195 ( 20082 PWs)   bands (ev):

   -75.5074 -75.2394 -34.9245 -34.8473 -34.8128 -34.7620 -34.6743 -34.5981
    -7.8553  -7.0134  -6.9154  -6.5920  -6.3482  -6.2423  -6.0927  -6.0101
    -5.9140  -5.8210  -5.7894  -5.7847  -4.3028  -4.2750  -4.2330  -4.2190
    -4.2092  -4.1808  -4.1522  -4.1471  -4.1252  -4.0981  -4.0823  -4.0680
    -4.0537  -4.0346  -4.0006  -3.9905  -3.9608  -3.9328  -3.8968  -3.8527
     2.5734   3.4806   3.6549   3.8949   4.7726   5.0301   5.1660   5.4593
     5.6157   5.9779   6.0099   6.0607   6.2277   6.4030   7.0498   7.1475
     7.2800   7.4337   7.5934   7.6500   7.7116   7.8652   8.0035   8.1214
     8.4363   8.6399   8.6730   8.7507   8.8841   9.0924   9.2550   9.4887
     9.5864   9.6795   9.8069   9.8535  10.2638  10.3334  10.6513  10.7676
    11.6721  11.6932  11.9208  12.0327  12.0887  12.1196  12.4511  12.4727
    12.7084  12.9044  12.9989  13.0438  13.1007  13.1633  13.3161  13.3447
    15.1050  15.6428  15.8083  15.9504  16.4061  16.6337  16.9003  16.9394
    17.3913  17.6512  17.7522  17.7793

          k = 0.1667-0.5047-0.3608 ( 20066 PWs)   bands (ev):

   -75.5074 -75.2394 -34.9245 -34.8473 -34.8128 -34.7620 -34.6743 -34.5981
    -7.8506  -7.0010  -6.8992  -6.5111  -6.3793  -6.2114  -6.1858  -6.1002
    -5.9225  -5.8050  -5.7974  -5.7397  -4.2987  -4.2717  -4.2403  -4.2162
    -4.1955  -4.1817  -4.1558  -4.1511  -4.1266  -4.1004  -4.0928  -4.0751
    -4.0311  -4.0220  -3.9988  -3.9689  -3.9523  -3.9236  -3.9156  -3.8918
     2.5562   3.4956   3.7765   3.9902   4.5595   5.0846   5.3608   5.5467
     5.7726   6.0255   6.0700   6.1629   6.2607   6.3311   6.9432   6.9986
     7.0239   7.0833   7.3556   7.5640   7.7955   7.9388   8.0250   8.1564
     8.2137   8.2692   8.5655   8.9886   9.1646   9.3123   9.3678   9.4692
     9.6003   9.6439   9.8103   9.8845  10.1915  10.3575  10.6555  10.7144
    11.8802  11.9289  11.9542  11.9823  12.0204  12.1195  12.4871  12.6152
    12.7226  12.8107  12.9960  13.0260  13.1771  13.2120  13.3335  13.3711
    14.9331  15.6251  15.7613  15.8073  16.6246  16.8326  16.8674  16.9213
    17.1988  17.4920  17.6904  17.7336

          k = 0.1667-0.5047-0.1206 ( 20072 PWs)   bands (ev):

   -75.5074 -75.2394 -34.9245 -34.8473 -34.8128 -34.7620 -34.6743 -34.5981
    -7.8551  -7.0198  -6.9067  -6.6004  -6.3482  -6.2413  -6.0891  -6.0027
    -5.9000  -5.8207  -5.8128  -5.7808  -4.3072  -4.2764  -4.2329  -4.2159
    -4.2028  -4.1840  -4.1549  -4.1432  -4.1334  -4.0972  -4.0830  -4.0654
    -4.0428  -4.0256  -4.0046  -3.9865  -3.9611  -3.9320  -3.9083  -3.8604
     2.5613   3.4762   3.7037   3.9270   4.6770   5.0023   5.1811   5.5081
     5.7019   5.9543   6.0301   6.1021   6.1982   6.3572   6.8724   7.0910
     7.1751   7.4206   7.6429   7.7146   7.8695   7.9379   8.0698   8.1234
     8.3330   8.4050   8.6903   8.9242   9.0961   9.2585   9.2798   9.3482
     9.4649   9.4761   9.7809   9.8782  10.2530  10.2959  10.7956  10.9006
    11.6427  11.6610  11.8923  12.0368  12.0855  12.1089  12.4902  12.5469
    12.6228  12.7968  13.0185  13.0432  13.1540  13.1820  13.2886  13.3089
    15.0379  15.6078  15.7686  16.0326  16.4509  16.5511  17.0071  17.1318
    17.5187  17.5841  17.6364  17.8147

          k =-0.5000 0.1682 0.1217 ( 20080 PWs)   bands (ev):

   -75.5074 -75.2394 -34.9245 -34.8473 -34.8128 -34.7619 -34.6743 -34.5981
    -7.8457  -7.0990  -6.9003  -6.5586  -6.3074  -6.2407  -6.0650  -6.0220
    -5.9582  -5.8209  -5.7860  -5.7608  -4.2996  -4.2648  -4.2335  -4.2106
    -4.2023  -4.1900  -4.1723  -4.1639  -4.1423  -4.1188  -4.0925  -4.0624
    -4.0468  -4.0270  -3.9964  -3.9712  -3.9596  -3.9343  -3.9091  -3.8495
     2.7433   3.5293   3.6978   3.9034   4.5079   4.9792   5.1481   5.5019
     5.5357   5.9220   6.0330   6.0960   6.1714   6.3061   6.8643   7.0509
     7.1746   7.4593   7.5270   7.6466   7.8930   8.0594   8.1341   8.2213
     8.4718   8.6413   8.9400   9.0663   9.1676   9.2915   9.3270   9.4067
     9.5726   9.6251   9.6762   9.8101  10.0150  10.0987  10.5408  10.6740
    11.6455  11.6639  12.0143  12.0511  12.1031  12.1244  12.4585  12.5887
    12.6494  12.7982  12.8551  12.9413  13.1223  13.1768  13.3381  13.3911
    15.0067  15.7260  15.8123  15.9570  16.6504  16.7545  17.0017  17.1849
    17.2566  17.5110  17.6237  17.7278

          k =-0.5000 0.1682-0.3586 ( 20076 PWs)   bands (ev):

   -75.5074 -75.2394 -34.9245 -34.8473 -34.8128 -34.7619 -34.6743 -34.5981
    -7.8424  -7.0660  -6.9133  -6.4311  -6.3754  -6.2161  -6.1681  -6.0884
    -5.9883  -5.7962  -5.7650  -5.7372  -4.3014  -4.2508  -4.2437  -4.2043
    -4.2008  -4.1895  -4.1743  -4.1664  -4.1446  -4.1267  -4.0858  -4.0611
    -4.0328  -4.0258  -3.9862  -3.9764  -3.9538  -3.9305  -3.9210  -3.8674
     2.7198   3.6276   3.8187   3.9349   4.3031   5.0941   5.3792   5.4033
     5.5860   6.0683   6.1044   6.1435   6.2787   6.2979   6.6636   6.8850
     7.0827   7.3347   7.4388   7.5641   7.8323   7.8841   8.0619   8.1510
     8.2785   8.3306   8.9846   9.0913   9.2601   9.3948   9.4503   9.5173
     9.6738   9.7503   9.8697   9.9299   9.9952  10.0817  10.4219  10.4567
    11.9545  11.9677  11.9917  11.9954  12.0424  12.1083  12.3192  12.5923
    12.6330  12.7982  12.9882  13.0151  13.2400  13.2969  13.3109  13.3418
    14.8634  15.5997  15.9231  15.9660  16.4145  16.5898  17.0523  17.1446
    17.1982  17.5791  17.6145  17.7129

          k =-0.5000-0.5047 0.1217 ( 20108 PWs)   bands (ev):

   -75.5074 -75.2394 -34.9245 -34.8473 -34.8128 -34.7620 -34.6743 -34.5981
    -7.7835  -7.1306  -6.8334  -6.6085  -6.3170  -6.2127  -6.0436  -6.0202
    -5.8619  -5.8278  -5.7775  -5.7594  -4.3199  -4.2801  -4.2362  -4.2238
    -4.2035  -4.1969  -4.1748  -4.1660  -4.1500  -4.1176  -4.0859  -4.0781
    -4.0669  -4.0506  -4.0353  -4.0245  -4.0112  -3.9619  -3.9106  -3.8604
     2.8381   3.2256   3.5058   3.9784   4.3563   4.5976   4.7812   5.6160
     5.6570   5.9572   6.0315   6.4324   6.4883   6.5884   7.2176   7.3073
     7.4892   7.5166   7.7991   7.8929   8.0480   8.0705   8.2084   8.2666
     8.3472   8.6518   8.7256   8.7574   8.9480   9.1235   9.1922   9.2117
     9.5385   9.5717   9.7833   9.8222  10.0575  10.0725  11.1543  11.1848
    11.3746  11.4017  12.0895  12.1249  12.1380  12.1599  12.2855  12.3543
    12.6491  12.6958  12.9615  13.1153  13.1720  13.1972  13.5732  13.6053
    14.6339  14.7994  15.5430  16.0513  16.1770  16.3773  16.7083  16.7673
    17.2829  17.3267  17.5509  17.7478

          k =-0.5000-0.5047-0.3586 ( 20112 PWs)   bands (ev):

   -75.5074 -75.2394 -34.9245 -34.8473 -34.8129 -34.7620 -34.6743 -34.5981
    -7.7817  -7.1142  -6.8325  -6.4917  -6.4259  -6.1755  -6.0555  -6.0390
    -5.8977  -5.8593  -5.7789  -5.7596  -4.3039  -4.2733  -4.2481  -4.2198
    -4.1973  -4.1909  -4.1675  -4.1620  -4.1538  -4.1193  -4.0769  -4.0647
    -4.0570  -4.0443  -4.0281  -4.0193  -3.9818  -3.9678  -3.9536  -3.9115
     2.8412   3.4881   3.5980   3.6436   4.2419   4.7011   4.9531   5.6261
     5.6752   6.0044   6.0951   6.4613   6.8208   6.8337   6.9206   7.0664
     7.2936   7.3922   7.7350   7.7427   7.9615   7.9987   8.2715   8.3944
     8.4994   8.6024   8.6588   8.7232   8.7737   8.8943   8.9942   9.0626
     9.7115   9.7270   9.7866   9.8614  10.4092  10.4802  10.5129  10.5724
    11.9200  11.9229  11.9356  11.9406  12.1135  12.1824  12.3543  12.4920
    12.6435  12.6795  12.9880  13.1076  13.3411  13.3715  13.3869  13.4710
    15.1589  15.5138  15.6140  15.6490  16.0499  16.5747  16.6882  16.9187
    17.3060  17.3104  17.4590  17.4806

          k =-0.1667 0.1682-0.1195 ( 20076 PWs)   bands (ev):

   -75.5074 -75.2394 -34.9245 -34.8473 -34.8128 -34.7619 -34.6743 -34.5981
    -7.9530  -7.0571  -6.9559  -6.5268  -6.3220  -6.1946  -6.0638  -5.9831
    -5.9460  -5.8878  -5.8396  -5.7743  -4.3037  -4.2555  -4.2316  -4.2099
    -4.1933  -4.1643  -4.1579  -4.1452  -4.1276  -4.1095  -4.0799  -4.0628
    -4.0444  -4.0313  -4.0060  -3.9780  -3.9066  -3.8756  -3.8587  -3.7837
     2.3355   3.7837   3.9968   4.1620   4.5872   4.9033   5.1833   5.4124
     5.4884   5.6073   5.8207   6.0264   6.2554   6.3506   6.7153   6.8781
     7.1370   7.2625   7.3127   7.4833   7.8722   7.9195   8.2311   8.4498
     8.6988   8.7646   8.8864   8.9388   9.2030   9.2431   9.4253   9.4858
     9.5369   9.7031   9.8613   9.9450  10.1971  10.2755  10.5370  10.8776
    11.3444  11.4764  11.6450  11.6744  12.0806  12.1293  12.2550  12.4098
    12.5961  12.6750  12.8228  12.9140  13.1101  13.2004  13.2671  13.4022
    14.2751  15.9143  16.5066  16.7423  16.9891  17.0197  17.2641  17.3773
    17.5249  17.5891  17.8859  17.9333

          k =-0.1667 0.1682 0.3608 ( 20081 PWs)   bands (ev):

   -75.5074 -75.2394 -34.9245 -34.8473 -34.8128 -34.7619 -34.6743 -34.5981
    -7.9383  -7.0539  -6.9602  -6.4765  -6.3199  -6.1898  -6.1543  -5.9943
    -5.9519  -5.8967  -5.8353  -5.7630  -4.2880  -4.2416  -4.2352  -4.1908
    -4.1871  -4.1769  -4.1581  -4.1382  -4.1323  -4.1130  -4.0691  -4.0431
    -4.0387  -4.0130  -3.9756  -3.9509  -3.9311  -3.9080  -3.8712  -3.8544
     2.3829   3.6417   4.0642   4.1422   4.6152   5.2291   5.3221   5.3730
     5.6154   5.6966   5.8585   5.9686   6.1425   6.2262   6.5206   7.0054
     7.0704   7.2875   7.3467   7.4557   7.6978   7.7531   8.2713   8.3969
     8.5642   8.6516   8.7722   8.8937   9.0942   9.2677   9.3743   9.5016
     9.6979   9.7621   9.8976  10.0165  10.0507  10.2732  10.5483  10.7279
    11.4609  11.6414  11.9454  11.9570  12.0266  12.0446  12.2567  12.4159
    12.6143  12.6807  12.7517  12.9494  13.0705  13.1212  13.2527  13.2897
    14.9965  15.9476  16.4569  16.6094  16.7818  16.9020  17.2634  17.3190
    17.5255  17.5917  17.7329  17.8804

          k =-0.1667 0.1682 0.1206 ( 20064 PWs)   bands (ev):

   -75.5074 -75.2394 -34.9245 -34.8473 -34.8128 -34.7619 -34.6743 -34.5981
    -7.9523  -7.0664  -6.9491  -6.5251  -6.3302  -6.1929  -6.0600  -5.9880
    -5.9075  -5.8809  -5.8567  -5.7953  -4.3039  -4.2544  -4.2344  -4.2081
    -4.1909  -4.1649  -4.1503  -4.1497  -4.1271  -4.1105  -4.0781  -4.0630
    -4.0404  -4.0284  -3.9980  -3.9788  -3.9218  -3.8765  -3.8467  -3.8009
     2.3389   3.8056   3.8633   4.3257   4.5430   4.9242   5.2143   5.3895
     5.5084   5.6898   5.7936   5.9575   6.2023   6.4647   6.5985   6.8711
     7.0704   7.2212   7.3401   7.4237   7.9258   8.0878   8.2002   8.3576
     8.6503   8.7146   8.9012   9.0420   9.0995   9.2435   9.4339   9.5204
     9.5562   9.6830   9.9797  10.0717  10.1306  10.3586  10.5194  10.8692
    11.2362  11.4697  11.6317  11.6919  12.0683  12.1390  12.2759  12.4472
    12.5613  12.6899  12.7930  12.9116  13.0689  13.1595  13.2254  13.4554
    14.3064  15.9387  16.5238  16.7378  16.9376  17.1660  17.2176  17.2865
    17.4477  17.6497  17.8550  17.9357

          k = 0.5000 0.1682-0.1217 ( 20080 PWs)   bands (ev):

   -75.5074 -75.2394 -34.9245 -34.8473 -34.8128 -34.7619 -34.6743 -34.5981
    -7.8457  -7.0985  -6.8998  -6.5614  -6.3028  -6.2485  -6.0570  -6.0296
    -5.9476  -5.8180  -5.7923  -5.7630  -4.3056  -4.2611  -4.2358  -4.2117
    -4.1985  -4.1922  -4.1705  -4.1632  -4.1401  -4.1218  -4.0889  -4.0537
    -4.0400  -4.0267  -4.0015  -3.9803  -3.9639  -3.9375  -3.9174  -3.8368
     2.7440   3.5442   3.6775   3.9144   4.4949   4.9681   5.1720   5.4916
     5.5364   5.9430   6.0154   6.0793   6.1554   6.3398   6.8537   6.9839
     7.2700   7.4540   7.5184   7.7126   7.8328   8.0526   8.1599   8.2088
     8.4649   8.6591   8.8655   9.0772   9.2024   9.2808   9.3638   9.4670
     9.4777   9.5938   9.7091   9.7867  10.0070  10.1361  10.5695  10.6547
    11.6339  11.6737  12.0088  12.0583  12.0920  12.1324  12.4737  12.5634
    12.6190  12.8054  12.8991  12.9461  13.1032  13.1717  13.3309  13.4035
    14.9578  15.7503  15.7950  16.0129  16.5886  16.7400  17.0121  17.1703
    17.3615  17.5749  17.6194  17.7235

     the Fermi energy is    12.7437 ev

!    total energy              =   -1472.86683585 Ry
     Harris-Foulkes estimate   =   -1472.86683585 Ry
     estimated scf accuracy    <          2.5E-11 Ry

     The total energy is the sum of the following terms:

     one-electron contribution =    -295.92072412 Ry
     hartree contribution      =     285.39585015 Ry
     xc contribution           =    -357.03417237 Ry
     ewald contribution        =   -1105.26422561 Ry
     smearing contrib. (-TS)   =      -0.04356390 Ry

     convergence has been achieved in  31 iterations

     Forces acting on atoms (Ry/au):

     atom    1 type  1   force =    -0.00477772   -0.01901947   -0.04048344
     atom    2 type  1   force =    -0.00038955   -0.03773466    0.04812255
     atom    3 type  1   force =     0.00680823    0.01312277   -0.00860873
     atom    4 type  1   force =    -0.00160651    0.00416079    0.00791058
     atom    5 type  2   force =     0.00045196   -0.00067057    0.00017065
     atom    6 type  2   force =     0.00471088   -0.01606736   -0.00069419
     atom    7 type  3   force =    -0.03291639    0.20700077   -0.00339830
     atom    8 type  3   force =    -0.00045880    0.00255638   -0.00034015
     atom    9 type  4   force =    -0.00252490   -0.00580673   -0.03054493
     atom   10 type  4   force =     0.00433480   -0.00044468    0.03271355
     atom   11 type  4   force =     0.00426551   -0.00168789    0.03310488
     atom   12 type  4   force =    -0.00374023    0.00182448   -0.03342012
     atom   13 type  4   force =    -0.03029393   -0.02927324    0.00659100
     atom   14 type  4   force =     0.03042746    0.02792484   -0.00697179
     atom   15 type  4   force =     0.06331440   -0.09741733   -0.00245164
     atom   16 type  4   force =    -0.03751196    0.02627782    0.00823561
     atom   17 type  4   force =    -0.01861273    0.02200589    0.00365014
     atom   18 type  4   force =     0.01816611   -0.02235528   -0.00341424
     atom   19 type  4   force =     0.02713839    0.02358609   -0.00290898
     atom   20 type  4   force =    -0.04203636   -0.07897600    0.00183096
     atom   21 type  5   force =     0.01525134   -0.01900662   -0.00909342

     Total force =     0.292572     Total SCF correction =     0.000015


     entering subroutine stress ...

          total   stress  (Ry/bohr**3)                   (kbar)     P=   71.19
   0.00045404  -0.00002424  -0.00002703         66.79     -3.57     -3.98
  -0.00002424   0.00060528  -0.00001760         -3.57     89.04     -2.59
  -0.00002703  -0.00001760   0.00039252         -3.98     -2.59     57.74


     BFGS Geometry Optimization

     number of scf cycles    =   1
     number of bfgs steps    =   0

     energy   new            =   -1472.8668358495 Ry

     new trust radius        =       0.2096290911 bohr
     new conv_thr            =            1.0E-10 Ry


ATOMIC_POSITIONS (crystal)
Pb1      0.005363722   0.509997462   0.247961607
Pb1      0.994148840   0.484623761   0.752555120
Pb1      0.494841792   0.013043689   0.248717686
Pb1      0.505646777   0.988594332   0.751235090
Co1      0.000042380  -0.000063552   0.000011543
Co1      0.500442486   0.498477243   0.499953044
Os1     -0.003089287   0.019618148   0.499770131
Os1      0.499957029   0.500242277  -0.000023008
O1       0.933672212   0.990049677   0.256033870
O1       0.066497051   0.009357856   0.744112820
O1       0.566490427   0.490440033   0.244139291
O1       0.433558984   0.509572912   0.755839386
O1       0.238353892   0.279425678   0.035845830
O1       0.761658760   0.720446530   0.964128412
O1       0.264744942   0.772967437   0.464434165
O1       0.737675736   0.220290436   0.535957076
O1       0.280551459   0.766685571   0.036746904
O1       0.719406539   0.233281316   0.963269053
O1       0.220248738   0.266835332   0.463303230
O1       0.778352910   0.727915183   0.536623850
XMU       0.036434611   0.699198680   0.514384900



     Writing output data file PbCoOsO6.nmu1.rel.035701515.save
     NEW-OLD atomic charge density approx. for the potential

     Check: negative/imaginary core charge=   -0.000005    0.000000

     total cpu time spent up to now is      452.6 secs

     Self-consistent Calculation

     iteration #  1     ecut=    80.00 Ry     beta=0.70
     Davidson diagonalization with overlap
     ethr =  1.00E-06,  avg # of iterations = 13.4

     total cpu time spent up to now is      486.9 secs

     total energy              =   -1472.86765841 Ry
     Harris-Foulkes estimate   =   -1472.92283724 Ry
     estimated scf accuracy    <       0.06733662 Ry

     iteration #  2     ecut=    80.00 Ry     beta=0.70
     Davidson diagonalization with overlap
     ethr =  3.76E-05,  avg # of iterations =  5.0

     total cpu time spent up to now is      505.9 secs

     total energy              =   -1472.58746373 Ry
     Harris-Foulkes estimate   =   -1473.42411591 Ry
     estimated scf accuracy    <      10.40112109 Ry

     iteration #  3     ecut=    80.00 Ry     beta=0.70
     Davidson diagonalization with overlap
     ethr =  3.76E-05,  avg # of iterations =  5.0

     total cpu time spent up to now is      523.9 secs

     total energy              =   -1472.70885449 Ry
     Harris-Foulkes estimate   =   -1473.15608316 Ry
     estimated scf accuracy    <       9.86240053 Ry

     iteration #  4     ecut=    80.00 Ry     beta=0.70
     Davidson diagonalization with overlap
     ethr =  3.76E-05,  avg # of iterations =  4.0

     total cpu time spent up to now is      537.8 secs

     total energy              =   -1472.89508838 Ry
     Harris-Foulkes estimate   =   -1472.93356967 Ry
     estimated scf accuracy    <       0.41852389 Ry

     iteration #  5     ecut=    80.00 Ry     beta=0.70
     Davidson diagonalization with overlap
     ethr =  3.76E-05,  avg # of iterations =  2.0

     total cpu time spent up to now is      548.6 secs

     total energy              =   -1472.90877952 Ry
     Harris-Foulkes estimate   =   -1472.92586812 Ry
     estimated scf accuracy    <       0.20448302 Ry

     iteration #  6     ecut=    80.00 Ry     beta=0.70
     Davidson diagonalization with overlap
     ethr =  3.76E-05,  avg # of iterations =  1.3

     total cpu time spent up to now is      558.7 secs

     total energy              =   -1472.91691466 Ry
     Harris-Foulkes estimate   =   -1472.91899153 Ry
     estimated scf accuracy    <       0.01440320 Ry

     iteration #  7     ecut=    80.00 Ry     beta=0.70
     Davidson diagonalization with overlap
     ethr =  8.05E-06,  avg # of iterations =  1.0

     total cpu time spent up to now is      568.6 secs

     total energy              =   -1472.91791894 Ry
     Harris-Foulkes estimate   =   -1472.91852861 Ry
     estimated scf accuracy    <       0.00581457 Ry

     iteration #  8     ecut=    80.00 Ry     beta=0.70
     Davidson diagonalization with overlap
     ethr =  3.25E-06,  avg # of iterations =  1.3

     total cpu time spent up to now is      578.8 secs

     total energy              =   -1472.91816909 Ry
     Harris-Foulkes estimate   =   -1472.91831367 Ry
     estimated scf accuracy    <       0.00076217 Ry

     iteration #  9     ecut=    80.00 Ry     beta=0.70
     Davidson diagonalization with overlap
     ethr =  4.26E-07,  avg # of iterations =  1.8

     total cpu time spent up to now is      589.3 secs

     total energy              =   -1472.91823789 Ry
     Harris-Foulkes estimate   =   -1472.91824637 Ry
     estimated scf accuracy    <       0.00002868 Ry

     iteration # 10     ecut=    80.00 Ry     beta=0.70
     Davidson diagonalization with overlap
     ethr =  1.60E-08,  avg # of iterations =  2.8

     total cpu time spent up to now is      602.2 secs

     total energy              =   -1472.91824152 Ry
     Harris-Foulkes estimate   =   -1472.91824668 Ry
     estimated scf accuracy    <       0.00003191 Ry

     iteration # 11     ecut=    80.00 Ry     beta=0.70
     Davidson diagonalization with overlap
     ethr =  1.60E-08,  avg # of iterations =  1.9

     total cpu time spent up to now is      612.9 secs

     total energy              =   -1472.91824371 Ry
     Harris-Foulkes estimate   =   -1472.91824460 Ry
     estimated scf accuracy    <       0.00000326 Ry

     iteration # 12     ecut=    80.00 Ry     beta=0.70
     Davidson diagonalization with overlap
     ethr =  1.82E-09,  avg # of iterations =  2.0

     total cpu time spent up to now is      624.5 secs

     total energy              =   -1472.91824387 Ry
     Harris-Foulkes estimate   =   -1472.91824433 Ry
     estimated scf accuracy    <       0.00000151 Ry

     iteration # 13     ecut=    80.00 Ry     beta=0.70
     Davidson diagonalization with overlap
     ethr =  8.45E-10,  avg # of iterations =  2.0

     total cpu time spent up to now is      635.8 secs

     total energy              =   -1472.91824284 Ry
     Harris-Foulkes estimate   =   -1472.91824543 Ry
     estimated scf accuracy    <       0.00006443 Ry

     iteration # 14     ecut=    80.00 Ry     beta=0.70
     Davidson diagonalization with overlap
     ethr =  8.45E-10,  avg # of iterations =  2.0

     total cpu time spent up to now is      646.8 secs

     total energy              =   -1472.91824392 Ry
     Harris-Foulkes estimate   =   -1472.91824429 Ry
     estimated scf accuracy    <       0.00000174 Ry

     iteration # 15     ecut=    80.00 Ry     beta=0.70
     Davidson diagonalization with overlap
     ethr =  8.45E-10,  avg # of iterations =  2.1

     total cpu time spent up to now is      658.2 secs

     total energy              =   -1472.91824234 Ry
     Harris-Foulkes estimate   =   -1472.91824610 Ry
     estimated scf accuracy    <       0.00006328 Ry

     iteration # 16     ecut=    80.00 Ry     beta=0.70
     Davidson diagonalization with overlap
     ethr =  8.45E-10,  avg # of iterations =  2.1

     total cpu time spent up to now is      669.5 secs

     total energy              =   -1472.91824420 Ry
     Harris-Foulkes estimate   =   -1472.91824421 Ry
     estimated scf accuracy    <       0.00000004 Ry

     iteration # 17     ecut=    80.00 Ry     beta=0.70
     Davidson diagonalization with overlap
     ethr =  2.04E-11,  avg # of iterations =  2.3

     total cpu time spent up to now is      682.1 secs

     total energy              =   -1472.91824420 Ry
     Harris-Foulkes estimate   =   -1472.91824421 Ry
     estimated scf accuracy    <       0.00000008 Ry

     iteration # 18     ecut=    80.00 Ry     beta=0.70
     Davidson diagonalization with overlap
     ethr =  2.04E-11,  avg # of iterations =  1.1

     total cpu time spent up to now is      692.1 secs

     total energy              =   -1472.91824420 Ry
     Harris-Foulkes estimate   =   -1472.91824421 Ry
     estimated scf accuracy    <          5.8E-09 Ry

     iteration # 19     ecut=    80.00 Ry     beta=0.70
     Davidson diagonalization with overlap
     ethr =  3.22E-12,  avg # of iterations =  2.0

     total cpu time spent up to now is      703.4 secs

     total energy              =   -1472.91824420 Ry
     Harris-Foulkes estimate   =   -1472.91824421 Ry
     estimated scf accuracy    <          3.0E-09 Ry

     iteration # 20     ecut=    80.00 Ry     beta=0.70
     Davidson diagonalization with overlap
     ethr =  1.70E-12,  avg # of iterations =  1.0

     total cpu time spent up to now is      713.3 secs

     total energy              =   -1472.91824421 Ry
     Harris-Foulkes estimate   =   -1472.91824421 Ry
     estimated scf accuracy    <          3.1E-10 Ry

     iteration # 21     ecut=    80.00 Ry     beta=0.70
     Davidson diagonalization with overlap
     ethr =  1.72E-13,  avg # of iterations =  2.0

     total cpu time spent up to now is      724.5 secs

     total energy              =   -1472.91824421 Ry
     Harris-Foulkes estimate   =   -1472.91824421 Ry
     estimated scf accuracy    <          1.1E-10 Ry

     iteration # 22     ecut=    80.00 Ry     beta=0.70
     Davidson diagonalization with overlap
     ethr =  1.00E-13,  avg # of iterations =  1.9

     total cpu time spent up to now is      735.1 secs

     End of self-consistent calculation

          k = 0.1667 0.1682 0.1195 ( 20076 PWs)   bands (ev):

   -75.4075 -75.1955 -34.8079 -34.7384 -34.7093 -34.6700 -34.5981 -34.5550
    -7.5807  -6.9514  -6.5825  -6.4831  -6.3951  -6.2880  -6.1752  -6.1418
    -5.9596  -5.8584  -5.8471  -5.8036  -4.2551  -4.2277  -4.1944  -4.1735
    -4.1652  -4.1463  -4.1381  -4.1334  -4.1225  -4.0875  -4.0790  -4.0566
    -4.0391  -4.0216  -3.9910  -3.9725  -3.8860  -3.8428  -3.8227  -3.8165
     2.7022   3.8789   4.0591   4.2205   4.6440   4.9571   5.2304   5.5161
     5.6046   5.6849   5.8377   6.0032   6.4118   6.5064   6.6091   6.8890
     7.0770   7.2131   7.4036   7.4714   7.8346   7.9147   8.2452   8.4456
     8.5933   8.7312   8.8726   9.0703   9.1632   9.1783   9.3541   9.4467
     9.5625   9.6183   9.8272   9.9823  10.1382  10.2928  10.4980  10.9051
    11.3036  11.4577  11.5684  11.6555  12.0570  12.1105  12.2415  12.4183
    12.5850  12.6613  12.8147  12.9041  13.0788  13.1524  13.2456  13.3734
    14.3334  15.9870  16.3299  16.7827  16.8814  16.9250  17.2106  17.3092
    17.4484  17.5202  17.6006  17.8397

          k = 0.1667 0.1682-0.3608 ( 20081 PWs)   bands (ev):

   -75.4075 -75.1955 -34.8079 -34.7384 -34.7093 -34.6700 -34.5981 -34.5550
    -7.5418  -6.9976  -6.5604  -6.4572  -6.3150  -6.2808  -6.2675  -6.1944
    -5.9722  -5.8741  -5.8464  -5.7873  -4.2503  -4.2073  -4.2022  -4.1636
    -4.1531  -4.1500  -4.1401  -4.1300  -4.1273  -4.0987  -4.0447  -4.0349
    -4.0214  -3.9966  -3.9770  -3.9424  -3.9279  -3.8858  -3.8678  -3.8427
     2.7988   3.6476   4.1410   4.1864   4.6927   5.2744   5.3315   5.5676
     5.6639   5.7858   5.9176   6.0508   6.2501   6.2838   6.5082   6.9677
     7.0635   7.3003   7.3137   7.4271   7.6049   7.7855   8.2582   8.3812
     8.4796   8.6444   8.7753   8.9530   9.1067   9.2451   9.3751   9.4981
     9.5972   9.7711   9.8171   9.9484  10.1262  10.2407  10.5417  10.6716
    11.4401  11.5842  11.8991  11.9234  11.9965  12.0175  12.2746  12.4118
    12.5767  12.6451  12.7719  12.8775  12.9664  13.1179  13.3049  13.3527
    15.1222  15.9832  16.4411  16.5142  16.6501  16.8327  17.0084  17.2635
    17.3694  17.4793  17.6880  17.7652

          k = 0.1667 0.1682-0.1206 ( 20064 PWs)   bands (ev):

   -75.4075 -75.1955 -34.8079 -34.7384 -34.7093 -34.6700 -34.5981 -34.5550
    -7.5782  -6.9611  -6.5812  -6.4847  -6.3920  -6.2928  -6.1652  -6.1424
    -5.9098  -5.8879  -5.8453  -5.8260  -4.2486  -4.2292  -4.1920  -4.1753
    -4.1675  -4.1461  -4.1399  -4.1326  -4.1203  -4.0915  -4.0690  -4.0515
    -4.0422  -4.0171  -3.9899  -3.9700  -3.9001  -3.8486  -3.8266  -3.8148
     2.7236   3.7817   3.9309   4.4255   4.6674   5.0492   5.2716   5.5091
     5.5980   5.7182   5.8462   5.9472   6.1379   6.5841   6.7731   6.8744
     6.9602   7.1711   7.3358   7.4562   7.8790   8.0738   8.2131   8.3931
     8.5629   8.6810   8.8802   9.0147   9.1516   9.1762   9.3591   9.4876
     9.5546   9.7008   9.8955  10.0814  10.1997  10.3230  10.4967  10.8037
    11.2119  11.4464  11.5777  11.6646  12.0416  12.1152  12.2639  12.4438
    12.5564  12.6933  12.7559  12.9157  13.0242  13.1326  13.2031  13.4349
    14.4592  16.0175  16.4478  16.6154  16.7329  16.9991  17.1534  17.2510
    17.3867  17.5446  17.6585  17.8375

          k = 0.1667-0.5047 0.1195 ( 20082 PWs)   bands (ev):

   -75.4075 -75.1955 -34.8079 -34.7384 -34.7093 -34.6700 -34.5981 -34.5551
    -7.3685  -6.9270  -6.7052  -6.5622  -6.4633  -6.2085  -6.1696  -6.1327
    -6.0021  -5.8170  -5.7963  -5.7908  -4.2628  -4.2415  -4.1978  -4.1865
    -4.1803  -4.1681  -4.1408  -4.1338  -4.1076  -4.0863  -4.0652  -4.0530
    -4.0376  -4.0144  -3.9866  -3.9841  -3.9515  -3.9234  -3.8794  -3.8569
     3.0383   3.5475   3.6791   3.8700   4.8672   5.1685   5.2403   5.5456
     5.6942   6.0124   6.1002   6.1653   6.2511   6.4077   7.0841   7.1294
     7.1898   7.4005   7.5479   7.6237   7.7827   7.8688   7.9880   8.0991
     8.4522   8.6154   8.6994   8.7842   8.8965   9.0653   9.1340   9.4203
     9.5823   9.6148   9.8032   9.8287  10.2078  10.3735  10.6741  10.7668
    11.6269  11.6499  11.8642  11.9829  12.0498  12.0820  12.4127  12.4639
    12.6732  12.8538  12.9820  13.0099  13.1448  13.1854  13.2972  13.3487
    15.1929  15.6460  15.7653  15.9102  16.3116  16.5742  16.8100  16.8216
    17.2956  17.4456  17.6169  17.6758

          k = 0.1667-0.5047-0.3608 ( 20066 PWs)   bands (ev):

   -75.4075 -75.1955 -34.8079 -34.7384 -34.7093 -34.6700 -34.5981 -34.5550
    -7.3587  -6.8346  -6.7730  -6.5665  -6.3787  -6.2658  -6.1736  -6.1535
    -6.0999  -5.8127  -5.8068  -5.7439  -4.2567  -4.2398  -4.2064  -4.1845
    -4.1702  -4.1593  -4.1487  -4.1400  -4.1071  -4.0839  -4.0786  -4.0639
    -4.0069  -3.9947  -3.9783  -3.9634  -3.9517  -3.9217  -3.9066  -3.8902
     3.0023   3.5670   3.7607   4.0089   4.7159   5.2169   5.4376   5.6245
     5.8223   6.0847   6.1859   6.2352   6.2813   6.3537   6.8665   6.9553
     7.0175   7.0773   7.3397   7.5418   7.7494   7.9186   7.9519   8.1315
     8.2528   8.3473   8.7688   8.9363   9.0112   9.3024   9.3590   9.4503
     9.5657   9.6418   9.7270   9.8609  10.1973  10.3501  10.6186  10.6774
    11.8394  11.8896  11.9150  11.9373  11.9809  12.0855  12.4729  12.5798
    12.6784  12.7714  12.9460  12.9984  13.1988  13.2223  13.3533  13.4392
    15.0182  15.6331  15.7451  15.7530  16.4640  16.7125  16.7781  16.8106
    17.1313  17.4443  17.5289  17.5498

          k = 0.1667-0.5047-0.1206 ( 20072 PWs)   bands (ev):

   -75.4075 -75.1955 -34.8079 -34.7384 -34.7093 -34.6700 -34.5981 -34.5550
    -7.3681  -6.9307  -6.6967  -6.5685  -6.4701  -6.2072  -6.1741  -6.1249
    -5.9832  -5.8205  -5.8099  -5.7887  -4.2652  -4.2436  -4.1999  -4.1838
    -4.1748  -4.1699  -4.1420  -4.1330  -4.1120  -4.0877  -4.0647  -4.0505
    -4.0223  -4.0062  -3.9947  -3.9833  -3.9531  -3.9201  -3.8857  -3.8674
     3.0145   3.5460   3.7365   3.8869   4.8211   5.1254   5.2524   5.6021
     5.7503   5.9989   6.0945   6.1902   6.2779   6.3807   6.7913   7.0539
     7.2314   7.3431   7.6038   7.6634   7.8319   7.9561   8.0793   8.2129
     8.3450   8.4807   8.7135   8.7880   9.1247   9.1665   9.3077   9.3389
     9.3780   9.4303   9.7292   9.8575  10.2409  10.3121  10.7978  10.8790
    11.5976  11.6174  11.8350  11.9833  12.0601  12.0775  12.4625  12.5123
    12.6130  12.7576  12.9649  13.0571  13.1770  13.1978  13.2829  13.2955
    15.1294  15.6471  15.6908  15.9828  16.4226  16.4447  16.8512  17.0207
    17.3569  17.4267  17.5030  17.7738

          k =-0.5000 0.1682 0.1217 ( 20080 PWs)   bands (ev):

   -75.4075 -75.1955 -34.8079 -34.7384 -34.7093 -34.6700 -34.5981 -34.5550
    -7.4078  -6.9151  -6.6836  -6.5026  -6.4213  -6.3265  -6.1755  -6.1131
    -6.0094  -5.8151  -5.7894  -5.7688  -4.2528  -4.2341  -4.1997  -4.1829
    -4.1757  -4.1679  -4.1576  -4.1439  -4.1309  -4.1018  -4.0907  -4.0469
    -4.0360  -4.0159  -3.9877  -3.9638  -3.9446  -3.9182  -3.8965  -3.8461
     3.1497   3.5786   3.7569   3.8984   4.6958   5.0991   5.2152   5.5870
     5.6191   6.0115   6.0844   6.1427   6.2486   6.4153   6.8738   6.9728
     7.0778   7.4091   7.4941   7.6312   7.8853   8.0561   8.1434   8.1758
     8.5121   8.6328   8.8396   9.0819   9.1464   9.2484   9.3041   9.4077
     9.5465   9.6119   9.6517   9.7730  10.0008  10.0649  10.5397  10.6619
    11.6051  11.6225  11.9608  12.0114  12.0699  12.1009  12.3974  12.5799
    12.5990  12.7337  12.8542  12.9159  13.1737  13.2192  13.3220  13.3817
    15.2023  15.7383  15.7807  15.9249  16.6384  16.7297  16.7971  16.9893
    17.1780  17.3708  17.4094  17.7035

          k =-0.5000 0.1682-0.3586 ( 20076 PWs)   bands (ev):

   -75.4075 -75.1955 -34.8079 -34.7384 -34.7093 -34.6700 -34.5981 -34.5550
    -7.3998  -6.8465  -6.7199  -6.4476  -6.3770  -6.3453  -6.2540  -6.1613
    -6.0825  -5.8029  -5.7735  -5.7406  -4.2553  -4.2212  -4.2074  -4.1823
    -4.1770  -4.1625  -4.1538  -4.1505  -4.1275  -4.1151  -4.0831  -4.0537
    -4.0169  -3.9991  -3.9686  -3.9616  -3.9538  -3.9311  -3.9062  -3.8636
     3.1103   3.6917   3.8443   3.9285   4.5253   5.2399   5.4722   5.4831
     5.6767   6.1415   6.1929   6.2340   6.3143   6.3624   6.6325   6.7740
     7.0539   7.3253   7.3987   7.5235   7.7994   7.8770   7.9892   8.1173
     8.2537   8.4207   8.8675   9.1235   9.2764   9.3912   9.4309   9.5060
     9.6594   9.7091   9.8365   9.9178   9.9846  10.0682  10.3488  10.4266
    11.9090  11.9364  11.9469  11.9600  12.0233  12.0792  12.2904  12.5427
    12.5947  12.7527  12.9167  13.0325  13.2591  13.2818  13.3442  13.4062
    15.0663  15.5825  15.9137  15.9787  16.3564  16.5169  16.8211  16.9658
    17.0687  17.3464  17.5769  17.6282

          k =-0.5000-0.5047 0.1217 ( 20108 PWs)   bands (ev):

   -75.4075 -75.1955 -34.8079 -34.7384 -34.7093 -34.6700 -34.5982 -34.5551
    -7.2940  -6.8840  -6.7216  -6.5767  -6.4947  -6.2623  -6.1417  -6.0934
    -5.8878  -5.8576  -5.7809  -5.7494  -4.2771  -4.2472  -4.2080  -4.1870
    -4.1842  -4.1740  -4.1548  -4.1413  -4.1338  -4.0941  -4.0786  -4.0676
    -4.0578  -4.0467  -4.0325  -4.0180  -3.9937  -3.9507  -3.8906  -3.8572
     3.1572   3.2966   3.6410   3.9667   4.5338   4.7256   4.8419   5.6910
     5.7299   6.0036   6.0357   6.5635   6.6363   6.7279   7.0332   7.3298
     7.4850   7.5040   7.8123   7.8830   7.9755   8.0894   8.1801   8.2260
     8.2737   8.5998   8.6666   8.6810   8.9578   9.1211   9.1624   9.1999
     9.5679   9.6067   9.7838   9.8012  10.0222  10.0589  11.1534  11.1851
    11.3055  11.3329  12.0467  12.0966  12.1064  12.1266  12.2557  12.3301
    12.6484  12.6901  12.9460  13.0610  13.1290  13.1542  13.5282  13.5619
    14.6894  14.8106  15.5749  16.0730  16.1861  16.3464  16.4862  16.6563
    17.2631  17.3804  17.5358  17.6126

          k =-0.5000-0.5047-0.3586 ( 20112 PWs)   bands (ev):

   -75.4075 -75.1955 -34.8079 -34.7384 -34.7093 -34.6700 -34.5981 -34.5551
    -7.2892  -6.8240  -6.7595  -6.5145  -6.4818  -6.2506  -6.2240  -6.1177
    -5.9067  -5.8740  -5.7781  -5.7598  -4.2591  -4.2390  -4.2161  -4.1861
    -4.1768  -4.1659  -4.1550  -4.1485  -4.1335  -4.0945  -4.0747  -4.0494
    -4.0373  -4.0309  -4.0228  -3.9960  -3.9685  -3.9621  -3.9538  -3.9114
     3.2076   3.5480   3.6306   3.6709   4.4847   4.8250   5.0115   5.7171
     5.7597   6.0574   6.1039   6.5881   6.7073   6.8999   7.0170   7.1311
     7.3042   7.3852   7.6858   7.7306   7.9311   7.9773   8.1775   8.3570
     8.4764   8.5182   8.6186   8.7222   8.7999   8.8834   8.9935   9.0848
     9.6334   9.6705   9.7426   9.8181  10.3938  10.4704  10.5555  10.5846
    11.8772  11.8886  11.9011  11.9155  12.0704  12.1427  12.3335  12.4598
    12.6335  12.6790  12.9569  13.0536  13.2779  13.3150  13.3769  13.4622
    15.3109  15.5414  15.5977  15.6194  16.0525  16.4806  16.6640  16.8426
    17.1333  17.2455  17.3286  17.4219

          k =-0.1667 0.1682-0.1195 ( 20076 PWs)   bands (ev):

   -75.4075 -75.1955 -34.8079 -34.7384 -34.7093 -34.6699 -34.5981 -34.5550
    -7.5730  -6.9599  -6.6242  -6.4754  -6.3757  -6.2682  -6.1566  -6.1453
    -5.9540  -5.8970  -5.8436  -5.7934  -4.2605  -4.2269  -4.1981  -4.1800
    -4.1669  -4.1442  -4.1402  -4.1257  -4.1171  -4.0904  -4.0662  -4.0480
    -4.0360  -4.0307  -3.9939  -3.9711  -3.8863  -3.8598  -3.8435  -3.7867
     2.7027   3.8505   4.0319   4.2839   4.6609   4.9868   5.2295   5.5067
     5.5598   5.6846   5.8563   6.0243   6.2681   6.5102   6.7097   6.9213
     7.0798   7.2157   7.3436   7.4599   7.8286   7.9324   8.2286   8.5099
     8.6442   8.6841   8.8816   8.9417   9.1988   9.2289   9.3592   9.4695
     9.5291   9.7280   9.7780   9.9247  10.1766  10.2704  10.5155  10.8697
    11.3042  11.4488  11.5918  11.6414  12.0494  12.0995  12.2322  12.3931
    12.5628  12.6780  12.8050  12.9043  13.1062  13.1642  13.2530  13.3913
    14.3802  15.8959  16.4414  16.7715  16.8834  16.9626  17.1606  17.2987
    17.3989  17.5554  17.6915  17.7464

          k =-0.1667 0.1682 0.3608 ( 20081 PWs)   bands (ev):

   -75.4075 -75.1955 -34.8079 -34.7384 -34.7093 -34.6700 -34.5981 -34.5550
    -7.5339  -7.0017  -6.6156  -6.4337  -6.3113  -6.2814  -6.2513  -6.1523
    -5.9820  -5.9074  -5.8552  -5.7690  -4.2458  -4.2121  -4.1987  -4.1671
    -4.1617  -4.1528  -4.1386  -4.1299  -4.1095  -4.0969  -4.0513  -4.0374
    -4.0249  -4.0001  -3.9616  -3.9479  -3.9241  -3.9027  -3.8590  -3.8417
     2.7928   3.6548   4.1307   4.1974   4.6990   5.2781   5.4008   5.5027
     5.7051   5.8000   5.8930   6.0276   6.1798   6.3028   6.4923   6.9861
     7.0848   7.2665   7.3211   7.4156   7.6845   7.7618   8.2753   8.3613
     8.5180   8.6673   8.7335   8.9009   9.0851   9.2688   9.3699   9.5163
     9.6421   9.7428   9.8365   9.9696  10.0301  10.2657  10.5179  10.7212
    11.4323  11.5865  11.9027  11.9253  11.9859  12.0131  12.2387  12.4027
    12.5760  12.6353  12.7113  12.9146  13.0430  13.1068  13.3180  13.3625
    15.1623  15.9546  16.4050  16.5247  16.7147  16.8632  17.0783  17.1893
    17.3340  17.4855  17.6319  17.7462

          k =-0.1667 0.1682 0.1206 ( 20064 PWs)   bands (ev):

   -75.4075 -75.1955 -34.8079 -34.7384 -34.7093 -34.6700 -34.5981 -34.5550
    -7.5713  -6.9678  -6.6203  -6.4759  -6.3765  -6.2677  -6.1582  -6.1438
    -5.9134  -5.9060  -5.8542  -5.8110  -4.2607  -4.2261  -4.1993  -4.1762
    -4.1678  -4.1458  -4.1381  -4.1279  -4.1168  -4.0909  -4.0615  -4.0539
    -4.0349  -4.0172  -3.9886  -3.9715  -3.9017  -3.8606  -3.8310  -3.8034
     2.7080   3.8513   3.9489   4.4162   4.6234   4.9955   5.2639   5.4753
     5.5934   5.7547   5.8302   5.9573   6.2912   6.5392   6.6227   6.8834
     7.0321   7.1854   7.3435   7.4121   7.9195   8.0524   8.2045   8.4233
     8.5808   8.7086   8.8469   9.0398   9.0867   9.2360   9.4125   9.4872
     9.5506   9.6516   9.9028  10.0413  10.1235  10.3458  10.5094  10.8692
    11.2129  11.4236  11.5828  11.6608  12.0305  12.1102  12.2496  12.4279
    12.5442  12.6707  12.7747  12.9308  13.0699  13.1200  13.2087  13.4429
    14.3990  15.9105  16.5120  16.6527  16.9117  17.0459  17.1464  17.2390
    17.4130  17.5210  17.6563  17.8100

          k = 0.5000 0.1682-0.1217 ( 20080 PWs)   bands (ev):

   -75.4075 -75.1955 -34.8079 -34.7384 -34.7093 -34.6700 -34.5981 -34.5550
    -7.4078  -6.9156  -6.6781  -6.5103  -6.4214  -6.3257  -6.1808  -6.1188
    -5.9865  -5.8198  -5.7883  -5.7748  -4.2587  -4.2311  -4.2006  -4.1852
    -4.1748  -4.1665  -4.1569  -4.1435  -4.1316  -4.1048  -4.0859  -4.0419
    -4.0287  -4.0113  -3.9937  -3.9689  -3.9480  -3.9228  -3.9039  -3.8351
     3.1483   3.5962   3.7342   3.9113   4.6783   5.0926   5.2367   5.5872
     5.6197   5.9813   6.0848   6.1732   6.2333   6.4308   6.8397   6.9202
     7.1580   7.4100   7.5303   7.6648   7.8111   8.0534   8.1324   8.2385
     8.4394   8.6825   8.7916   9.0482   9.2313   9.2631   9.3050   9.4354
     9.4720   9.5810   9.6837   9.7399   9.9903  10.1174  10.5689  10.6393
    11.5951  11.6274  11.9558  12.0215  12.0664  12.1023  12.3897  12.5704
    12.5954  12.7442  12.8595  12.9168  13.1724  13.2103  13.3272  13.3830
    15.1615  15.7176  15.7699  15.9860  16.6076  16.7063  16.8088  16.9963
    17.1972  17.3977  17.5602  17.6757

     the Fermi energy is    12.7183 ev

!    total energy              =   -1472.91824421 Ry
     Harris-Foulkes estimate   =   -1472.91824421 Ry
     estimated scf accuracy    <          1.4E-11 Ry

     The total energy is the sum of the following terms:

     one-electron contribution =    -288.49248269 Ry
     hartree contribution      =     281.74054772 Ry
     xc contribution           =    -356.89640764 Ry
     ewald contribution        =   -1109.22688119 Ry
     smearing contrib. (-TS)   =      -0.04302041 Ry

     convergence has been achieved in  22 iterations

     Forces acting on atoms (Ry/au):

     atom    1 type  1   force =    -0.00463606    0.00113528   -0.03499890
     atom    2 type  1   force =     0.00043632   -0.01558174    0.04529896
     atom    3 type  1   force =     0.00236671    0.00406371   -0.00972266
     atom    4 type  1   force =    -0.00569004   -0.00639177    0.00854127
     atom    5 type  2   force =    -0.00036284    0.00332409   -0.00030746
     atom    6 type  2   force =     0.01211976   -0.00605542    0.00148924
     atom    7 type  3   force =     0.00368379    0.01271096   -0.00331172
     atom    8 type  3   force =    -0.00068277    0.00464904   -0.00121513
     atom    9 type  4   force =     0.00015305   -0.00377526   -0.01257581
     atom   10 type  4   force =     0.00063158   -0.00040431    0.01393837
     atom   11 type  4   force =     0.00243397   -0.00305618    0.01787579
     atom   12 type  4   force =    -0.00112841    0.00049077   -0.01711604
     atom   13 type  4   force =    -0.01664843   -0.01936367    0.00392644
     atom   14 type  4   force =     0.01916402    0.01567662   -0.00355253
     atom   15 type  4   force =    -0.02666633   -0.04585187    0.01579428
     atom   16 type  4   force =    -0.05652092    0.03844061    0.00846052
     atom   17 type  4   force =    -0.01113908    0.01311313    0.00210085
     atom   18 type  4   force =     0.01106363   -0.01322881   -0.00077643
     atom   19 type  4   force =     0.03511830    0.03363794   -0.00771581
     atom   20 type  4   force =     0.01659411   -0.02222276   -0.00869148
     atom   21 type  5   force =     0.01970965    0.00868962   -0.01744176

     Total force =     0.137639     Total SCF correction =     0.000017


     entering subroutine stress ...

          total   stress  (Ry/bohr**3)                   (kbar)     P=   49.39
   0.00025605  -0.00002987  -0.00001241         37.67     -4.39     -1.83
  -0.00002987   0.00044648  -0.00000558         -4.39     65.68     -0.82
  -0.00001241  -0.00000558   0.00030471         -1.83     -0.82     44.82


     number of scf cycles    =   2
     number of bfgs steps    =   1

     energy   old            =   -1472.8668358495 Ry
     energy   new            =   -1472.9182442053 Ry

     CASE: energy  _new < energy  _old

     new trust radius        =       0.1048362251 bohr
     new conv_thr            =            1.0E-10 Ry


ATOMIC_POSITIONS (crystal)
Pb1      0.004675063   0.509631542   0.244035819
Pb1      0.994170647   0.481647245   0.757554567
Pb1      0.495322869   0.013907817   0.247677503
Pb1      0.504888747   0.987899131   0.752155528
Co1      0.000009118   0.000337969  -0.000012887
Co1      0.502081944   0.497282944   0.500073911
Os1     -0.003500113   0.026763939   0.499406921
Os1      0.499860030   0.500897389  -0.000138951
O1       0.933632075   0.989417813   0.254317563
O1       0.066682537   0.009294930   0.745993287
O1       0.566897765   0.490009180   0.246381865
O1       0.433328501   0.509683688   0.753659216
O1       0.235467149   0.276198438   0.036325411
O1       0.764863395   0.723172393   0.963675232
O1       0.263084402   0.764573257   0.465809862
O1       0.729611219   0.225844846   0.536876452
O1       0.278664207   0.768929481   0.037005867
O1       0.721271960   0.231013453   0.963133884
O1       0.225361889   0.271711619   0.462552707
O1       0.779315833   0.722996521   0.535876021
XMU       0.039310765   0.699786403   0.512640221



     Writing output data file PbCoOsO6.nmu1.rel.035701515.save
     NEW-OLD atomic charge density approx. for the potential

     Check: negative/imaginary core charge=   -0.000005    0.000000

     total cpu time spent up to now is      788.7 secs

     Self-consistent Calculation

     iteration #  1     ecut=    80.00 Ry     beta=0.70
     Davidson diagonalization with overlap
     ethr =  1.00E-06,  avg # of iterations = 10.4

     total cpu time spent up to now is      819.8 secs

     total energy              =   -1472.91913930 Ry
     Harris-Foulkes estimate   =   -1472.94444599 Ry
     estimated scf accuracy    <       0.03154456 Ry

     iteration #  2     ecut=    80.00 Ry     beta=0.70
     Davidson diagonalization with overlap
     ethr =  1.76E-05,  avg # of iterations =  4.6

     total cpu time spent up to now is      836.6 secs

     total energy              =   -1472.73424901 Ry
     Harris-Foulkes estimate   =   -1473.24549233 Ry
     estimated scf accuracy    <       6.73915540 Ry

     iteration #  3     ecut=    80.00 Ry     beta=0.70
     Davidson diagonalization with overlap
     ethr =  1.76E-05,  avg # of iterations =  4.1

     total cpu time spent up to now is      852.6 secs

     total energy              =   -1472.92593589 Ry
     Harris-Foulkes estimate   =   -1472.95405720 Ry
     estimated scf accuracy    <       0.31727926 Ry

     iteration #  4     ecut=    80.00 Ry     beta=0.70
     Davidson diagonalization with overlap
     ethr =  1.76E-05,  avg # of iterations =  2.3

     total cpu time spent up to now is      863.5 secs

     total energy              =   -1472.93717143 Ry
     Harris-Foulkes estimate   =   -1472.94533940 Ry
     estimated scf accuracy    <       0.07654105 Ry

     iteration #  5     ecut=    80.00 Ry     beta=0.70
     Davidson diagonalization with overlap
     ethr =  1.76E-05,  avg # of iterations =  2.0

     total cpu time spent up to now is      874.2 secs

     total energy              =   -1472.93332286 Ry
     Harris-Foulkes estimate   =   -1472.94866690 Ry
     estimated scf accuracy    <       0.32112698 Ry

     iteration #  6     ecut=    80.00 Ry     beta=0.70
     Davidson diagonalization with overlap
     ethr =  1.76E-05,  avg # of iterations =  1.0

     total cpu time spent up to now is      884.1 secs

     total energy              =   -1472.94146545 Ry
     Harris-Foulkes estimate   =   -1472.94282778 Ry
     estimated scf accuracy    <       0.01793793 Ry

     iteration #  7     ecut=    80.00 Ry     beta=0.70
     Davidson diagonalization with overlap
     ethr =  1.00E-05,  avg # of iterations =  1.0

     total cpu time spent up to now is      894.0 secs

     total energy              =   -1472.94201348 Ry
     Harris-Foulkes estimate   =   -1472.94223143 Ry
     estimated scf accuracy    <       0.00067874 Ry

     iteration #  8     ecut=    80.00 Ry     beta=0.70
     Davidson diagonalization with overlap
     ethr =  3.79E-07,  avg # of iterations =  2.9

     total cpu time spent up to now is      906.4 secs

     total energy              =   -1472.94211900 Ry
     Harris-Foulkes estimate   =   -1472.94217867 Ry
     estimated scf accuracy    <       0.00022035 Ry

     iteration #  9     ecut=    80.00 Ry     beta=0.70
     Davidson diagonalization with overlap
     ethr =  1.23E-07,  avg # of iterations =  2.0

     total cpu time spent up to now is      917.5 secs

     total energy              =   -1472.94214167 Ry
     Harris-Foulkes estimate   =   -1472.94215679 Ry
     estimated scf accuracy    <       0.00006857 Ry

     iteration # 10     ecut=    80.00 Ry     beta=0.70
     Davidson diagonalization with overlap
     ethr =  3.83E-08,  avg # of iterations =  2.0

     total cpu time spent up to now is      928.6 secs

     total energy              =   -1472.94214830 Ry
     Harris-Foulkes estimate   =   -1472.94215355 Ry
     estimated scf accuracy    <       0.00001993 Ry

     iteration # 11     ecut=    80.00 Ry     beta=0.70
     Davidson diagonalization with overlap
     ethr =  1.11E-08,  avg # of iterations =  2.0

     total cpu time spent up to now is      939.4 secs

     total energy              =   -1472.94215051 Ry
     Harris-Foulkes estimate   =   -1472.94215113 Ry
     estimated scf accuracy    <       0.00000313 Ry

     iteration # 12     ecut=    80.00 Ry     beta=0.70
     Davidson diagonalization with overlap
     ethr =  1.75E-09,  avg # of iterations =  2.0

     total cpu time spent up to now is      951.6 secs

     total energy              =   -1472.94215003 Ry
     Harris-Foulkes estimate   =   -1472.94215165 Ry
     estimated scf accuracy    <       0.00001208 Ry

     iteration # 13     ecut=    80.00 Ry     beta=0.70
     Davidson diagonalization with overlap
     ethr =  1.75E-09,  avg # of iterations =  2.0

     total cpu time spent up to now is      962.6 secs

     total energy              =   -1472.94215071 Ry
     Harris-Foulkes estimate   =   -1472.94215114 Ry
     estimated scf accuracy    <       0.00000570 Ry

     iteration # 14     ecut=    80.00 Ry     beta=0.70
     Davidson diagonalization with overlap
     ethr =  1.75E-09,  avg # of iterations =  1.0

     total cpu time spent up to now is      972.5 secs

     total energy              =   -1472.94215089 Ry
     Harris-Foulkes estimate   =   -1472.94215098 Ry
     estimated scf accuracy    <       0.00000131 Ry

     iteration # 15     ecut=    80.00 Ry     beta=0.70
     Davidson diagonalization with overlap
     ethr =  7.33E-10,  avg # of iterations =  1.0

     total cpu time spent up to now is      982.4 secs

     total energy              =   -1472.94215093 Ry
     Harris-Foulkes estimate   =   -1472.94215094 Ry
     estimated scf accuracy    <       0.00000006 Ry

     iteration # 16     ecut=    80.00 Ry     beta=0.70
     Davidson diagonalization with overlap
     ethr =  3.59E-11,  avg # of iterations =  2.0

     total cpu time spent up to now is      994.2 secs

     total energy              =   -1472.94215090 Ry
     Harris-Foulkes estimate   =   -1472.94215097 Ry
     estimated scf accuracy    <       0.00000128 Ry

     iteration # 17     ecut=    80.00 Ry     beta=0.70
     Davidson diagonalization with overlap
     ethr =  3.59E-11,  avg # of iterations =  2.0

     total cpu time spent up to now is     1005.0 secs

     total energy              =   -1472.94215094 Ry
     Harris-Foulkes estimate   =   -1472.94215094 Ry
     estimated scf accuracy    <       0.00000003 Ry

     iteration # 18     ecut=    80.00 Ry     beta=0.70
     Davidson diagonalization with overlap
     ethr =  1.64E-11,  avg # of iterations =  1.0

     total cpu time spent up to now is     1014.9 secs

     total energy              =   -1472.94215094 Ry
     Harris-Foulkes estimate   =   -1472.94215094 Ry
     estimated scf accuracy    <          1.2E-09 Ry

     iteration # 19     ecut=    80.00 Ry     beta=0.70
     Davidson diagonalization with overlap
     ethr =  6.90E-13,  avg # of iterations =  2.0

     total cpu time spent up to now is     1027.1 secs

     total energy              =   -1472.94215094 Ry
     Harris-Foulkes estimate   =   -1472.94215094 Ry
     estimated scf accuracy    <          8.5E-10 Ry

     iteration # 20     ecut=    80.00 Ry     beta=0.70
     Davidson diagonalization with overlap
     ethr =  4.76E-13,  avg # of iterations =  2.0

     total cpu time spent up to now is     1037.9 secs

     total energy              =   -1472.94215094 Ry
     Harris-Foulkes estimate   =   -1472.94215094 Ry
     estimated scf accuracy    <          3.2E-10 Ry

     iteration # 21     ecut=    80.00 Ry     beta=0.70
     Davidson diagonalization with overlap
     ethr =  1.79E-13,  avg # of iterations =  1.5

     total cpu time spent up to now is     1048.1 secs

     End of self-consistent calculation

          k = 0.1667 0.1682 0.1195 ( 20076 PWs)   bands (ev):

   -75.3372 -75.1388 -34.7243 -34.6616 -34.6344 -34.5762 -34.5278 -34.4841
    -7.4837  -6.9271  -6.5363  -6.4650  -6.3769  -6.2127  -6.1442  -6.0934
    -5.9841  -5.9005  -5.8604  -5.8225  -4.2135  -4.1964  -4.1776  -4.1625
    -4.1466  -4.1270  -4.1211  -4.1139  -4.1057  -4.0751  -4.0693  -4.0494
    -4.0284  -4.0101  -3.9846  -3.9619  -3.8708  -3.8289  -3.8186  -3.7919
     2.8619   3.9033   4.0851   4.2467   4.6957   5.0194   5.2166   5.5961
     5.6762   5.7306   5.8745   5.9743   6.4490   6.5842   6.6419   6.9818
     7.0657   7.1918   7.3564   7.4814   7.8181   7.8981   8.2370   8.4411
     8.5968   8.7171   8.8735   9.0326   9.1419   9.1751   9.3648   9.4195
     9.5596   9.6347   9.8408   9.9740  10.1225  10.3001  10.4997  10.9206
    11.2235  11.4103  11.4875  11.5919  12.0026  12.0491  12.1889  12.3859
    12.5372  12.6093  12.7620  12.8634  13.0246  13.1002  13.2092  13.3206
    14.4659  15.9609  16.3395  16.5661  16.7658  16.8660  17.1831  17.2812
    17.3476  17.3952  17.4948  17.7559

          k = 0.1667 0.1682-0.3608 ( 20081 PWs)   bands (ev):

   -75.3372 -75.1388 -34.7243 -34.6616 -34.6344 -34.5762 -34.5278 -34.4841
    -7.4305  -6.9923  -6.5008  -6.4470  -6.2880  -6.2723  -6.1888  -6.1484
    -5.9945  -5.9127  -5.8500  -5.8094  -4.2086  -4.1849  -4.1695  -4.1560
    -4.1454  -4.1309  -4.1232  -4.1099  -4.1047  -4.0842  -4.0460  -4.0287
    -4.0070  -3.9853  -3.9614  -3.9436  -3.9028  -3.8752  -3.8539  -3.8245
     2.9959   3.6274   4.1645   4.2433   4.6939   5.3164   5.3561   5.6615
     5.7246   5.8593   5.9370   6.0761   6.3007   6.3651   6.4999   7.0070
     7.0762   7.2458   7.2653   7.3841   7.6257   7.7966   8.2490   8.3803
     8.4656   8.6360   8.7953   8.9425   9.1090   9.2395   9.3793   9.4871
     9.5961   9.7599   9.8110   9.9538  10.1003  10.2217  10.5533  10.6776
    11.3966  11.4967  11.8286  11.8631  11.9289  11.9579  12.2221  12.3806
    12.5069  12.5863  12.7153  12.8149  12.9122  13.0695  13.3149  13.3705
    15.3619  15.9597  16.3523  16.4698  16.5547  16.7099  16.8665  17.0805
    17.2027  17.3498  17.6153  17.7155

          k = 0.1667 0.1682-0.1206 ( 20064 PWs)   bands (ev):

   -75.3372 -75.1388 -34.7243 -34.6616 -34.6344 -34.5762 -34.5277 -34.4841
    -7.4812  -6.9359  -6.5366  -6.4669  -6.3736  -6.2166  -6.1397  -6.0904
    -5.9309  -5.9163  -5.8698  -5.8488  -4.2070  -4.1978  -4.1785  -4.1603
    -4.1493  -4.1293  -4.1216  -4.1132  -4.1022  -4.0829  -4.0625  -4.0445
    -4.0291  -4.0080  -3.9817  -3.9580  -3.8835  -3.8334  -3.8174  -3.7946
     2.8885   3.8000   3.9625   4.4701   4.6977   5.0927   5.2665   5.5880
     5.6771   5.7664   5.8794   5.9231   6.1656   6.6512   6.8202   6.9115
     7.0182   7.1405   7.3020   7.4601   7.8749   8.0316   8.2039   8.3914
     8.5795   8.6734   8.8779   9.0115   9.1327   9.1553   9.3462   9.4647
     9.5634   9.7238   9.9009  10.0341  10.1789  10.3292  10.4928  10.8338
    11.1512  11.3883  11.5009  11.6082  11.9810  12.0597  12.2064  12.4192
    12.5100  12.6389  12.6987  12.8683  12.9772  13.1039  13.1573  13.3789
    14.5527  16.0351  16.4020  16.5549  16.6488  16.8933  17.0839  17.1640
    17.2846  17.4276  17.5502  17.7160

          k = 0.1667-0.5047 0.1195 ( 20082 PWs)   bands (ev):

   -75.3372 -75.1388 -34.7243 -34.6616 -34.6344 -34.5762 -34.5277 -34.4842
    -7.2237  -6.9230  -6.6808  -6.5208  -6.4713  -6.1977  -6.1232  -6.0656
    -6.0061  -5.8527  -5.8182  -5.8045  -4.2224  -4.2040  -4.1821  -4.1724
    -4.1615  -4.1524  -4.1302  -4.1190  -4.0900  -4.0790  -4.0582  -4.0333
[...]
    15.9429  16.0821  16.3011  16.4082  16.5730  16.7273  17.0504  17.0889
    17.2451  17.3802  17.6717  17.8034

          k = 0.1667 0.1682-0.1206 ( 20064 PWs)   bands (ev):

   -75.1747 -75.1679 -34.6524 -34.5712 -34.5054 -34.5005 -34.4781 -34.4168
    -8.1650  -7.1064  -6.7414  -6.5907  -6.2758  -6.2506  -6.0758  -6.0120
    -5.9947  -5.9574  -5.9185  -5.6239  -4.1904  -4.1711  -4.1632  -4.1591
    -4.1403  -4.1368  -4.1220  -4.1093  -4.0948  -4.0849  -4.0573  -4.0486
    -4.0252  -4.0087  -3.9627  -3.9458  -3.8811  -3.8378  -3.7772  -3.7101
     3.0829   3.7697   3.8956   4.2763   4.7462   5.0251   5.2791   5.6050
     5.6672   5.8339   5.8582   6.0037   6.2330   6.5704   6.7215   6.9676
     7.0419   7.0874   7.2390   7.4772   7.8099   7.9014   8.1262   8.2989
     8.5285   8.7343   8.8642   9.0074   9.0629   9.2272   9.2779   9.4236
     9.4886   9.6173   9.8280   9.9868  10.1757  10.3324  10.4603  10.9741
    11.1212  11.4757  11.5725  11.7378  12.0230  12.0755  12.2297  12.3152
    12.4960  12.6801  12.7614  12.8838  12.9411  13.1267  13.2355  13.3426
    14.9783  16.0482  16.3544  16.4705  16.8069  16.9144  17.0561  17.1756
    17.4019  17.5696  17.6069  17.7395

          k = 0.1667-0.5047 0.1195 ( 20082 PWs)   bands (ev):

   -75.1747 -75.1679 -34.6524 -34.5712 -34.5054 -34.5005 -34.4781 -34.4168
    -8.0983  -6.9466  -6.8105  -6.6112  -6.3683  -6.1982  -6.1628  -6.0252
    -5.9382  -5.8856  -5.8672  -5.6800  -4.1899  -4.1770  -4.1702  -4.1595
    -4.1485  -4.1419  -4.1180  -4.1160  -4.1035  -4.0922  -4.0680  -4.0474
    -4.0303  -3.9988  -3.9838  -3.9675  -3.9390  -3.8753  -3.8505  -3.7466
     3.4541   3.5461   3.6616   3.9335   4.5642   5.1656   5.3571   5.6312
     5.9275   6.0005   6.1543   6.2468   6.2851   6.5044   6.6087   7.0957
     7.1803   7.2491   7.4495   7.7009   7.7372   7.9147   8.0860   8.2199
     8.5205   8.5907   8.7599   8.8105   8.9279   9.0436   9.2199   9.2737
     9.4426   9.5340   9.7509   9.8567  10.0175  10.2846  10.7046  10.8132
    11.5106  11.5704  11.9356  11.9791  11.9993  12.0469  12.3053  12.4598
    12.6181  12.8008  12.9096  12.9580  13.1974  13.2460  13.2802  13.3848
    15.4607  15.5114  15.8546  15.9435  16.4096  16.5369  16.6420  16.7868
    17.2184  17.2741  17.4015  17.7093

          k = 0.1667-0.5047-0.3608 ( 20066 PWs)   bands (ev):

   -75.1747 -75.1679 -34.6524 -34.5712 -34.5054 -34.5005 -34.4781 -34.4168
    -8.0949  -6.8543  -6.8407  -6.5078  -6.4912  -6.2188  -6.1722  -6.1074
    -5.9414  -5.8944  -5.8269  -5.6745  -4.1948  -4.1831  -4.1673  -4.1604
    -4.1484  -4.1414  -4.1219  -4.1116  -4.0990  -4.0698  -4.0635  -4.0281
    -4.0240  -4.0020  -3.9810  -3.9344  -3.9224  -3.8908  -3.8656  -3.8028
     3.3922   3.5715   3.8526   3.9733   4.4770   5.4524   5.5591   5.6488
     5.9683   6.0498   6.1144   6.1949   6.3562   6.4099   6.5686   6.9059
     7.0326   7.0721   7.3423   7.4449   7.5549   7.7678   8.0610   8.1104
     8.4591   8.5068   8.7751   9.0137   9.0996   9.2120   9.3398   9.4268
     9.5013   9.6322   9.7207   9.8139  10.1229  10.2413  10.4920  10.5610
    11.8063  11.8308  11.8558  11.9071  11.9999  12.0417  12.4154  12.5103
    12.6064  12.6630  12.8298  13.0701  13.2290  13.2936  13.4141  13.5124
    15.5119  15.5284  15.6656  15.8171  16.3701  16.6024  16.6917  16.7419
    17.1853  17.3181  17.5661  17.6430

          k = 0.1667-0.5047-0.1206 ( 20072 PWs)   bands (ev):

   -75.1747 -75.1679 -34.6524 -34.5712 -34.5054 -34.5005 -34.4781 -34.4168
    -8.0985  -6.9499  -6.8079  -6.6132  -6.3660  -6.1879  -6.1658  -6.0157
    -5.9402  -5.9115  -5.8569  -5.6785  -4.1935  -4.1793  -4.1696  -4.1543
    -4.1485  -4.1416  -4.1252  -4.1177  -4.0908  -4.0861  -4.0741  -4.0539
    -4.0221  -3.9944  -3.9825  -3.9722  -3.9434  -3.8652  -3.8573  -3.7538
     3.4322   3.5417   3.7231   3.9390   4.5193   5.1573   5.3616   5.6765
     5.8865   6.0257   6.1545   6.2482   6.3922   6.4639   6.5329   7.0138
     7.1235   7.3079   7.3894   7.7212   7.7582   8.0113   8.0917   8.2467
     8.4195   8.4744   8.7523   8.8766   9.0071   9.1827   9.2233   9.3263
     9.3936   9.5030   9.6425   9.7891  10.1943  10.2764  10.7045  10.8249
    11.4554  11.5528  11.9092  11.9427  12.0229  12.0547  12.3397  12.5239
    12.6208  12.6822  12.9254  12.9853  13.1510  13.2469  13.2756  13.3908
    15.4502  15.5406  15.8431  16.0986  16.3238  16.4074  16.7283  16.8469
    17.1792  17.2757  17.5132  17.6865

          k =-0.5000 0.1682 0.1217 ( 20080 PWs)   bands (ev):

   -75.1747 -75.1679 -34.6524 -34.5712 -34.5054 -34.5006 -34.4781 -34.4168
    -8.1101  -6.9736  -6.7694  -6.6436  -6.3340  -6.2239  -6.1351  -6.0685
    -5.9562  -5.8897  -5.8520  -5.6300  -4.1868  -4.1770  -4.1647  -4.1578
    -4.1532  -4.1473  -4.1320  -4.1202  -4.1073  -4.0930  -4.0764  -4.0593
    -4.0328  -3.9953  -3.9705  -3.9605  -3.9306  -3.8685  -3.8230  -3.7547
     3.2426   3.5815   3.6817   3.9562   4.6971   5.1468   5.3190   5.6943
     5.7959   5.9733   6.1008   6.2533   6.3431   6.4244   6.8257   6.9234
     7.1330   7.3754   7.4733   7.7559   7.8694   7.9266   8.0966   8.1710
     8.3469   8.6114   8.8164   8.9820   9.0430   9.1855   9.2840   9.4058
     9.4527   9.5425   9.6018   9.7833  10.1316  10.2028  10.4556  10.7609
    11.4597  11.5513  11.8428  11.9482  11.9959  12.0953  12.2561  12.5141
    12.5902  12.6657  12.7889  12.9441  13.1582  13.2540  13.2712  13.3744
    15.5331  15.6488  15.8025  16.0464  16.4399  16.6096  16.7461  16.7892
    17.1265  17.2554  17.5641  17.6905

          k =-0.5000 0.1682-0.3586 ( 20076 PWs)   bands (ev):

   -75.1747 -75.1679 -34.6524 -34.5712 -34.5054 -34.5006 -34.4781 -34.4168
    -8.1071  -6.8628  -6.8452  -6.5051  -6.4775  -6.2344  -6.1574  -6.1213
    -5.9762  -5.8767  -5.8306  -5.6236  -4.1923  -4.1825  -4.1635  -4.1569
    -4.1506  -4.1445  -4.1387  -4.1175  -4.1003  -4.0937  -4.0677  -4.0306
    -4.0110  -4.0018  -3.9678  -3.9415  -3.9046  -3.8707  -3.8438  -3.8200
     3.2434   3.6749   3.7615   3.8673   4.6988   5.4821   5.5360   5.6580
     5.8166   6.0685   6.1109   6.2361   6.3778   6.4188   6.5516   6.8386
     7.0612   7.1171   7.3696   7.4771   7.7392   7.8045   7.9598   8.1073
     8.2943   8.4904   8.8603   9.1144   9.2278   9.2916   9.3857   9.5066
     9.6188   9.6705   9.7438   9.8957   9.9796  10.1006  10.2329  10.5728
    11.7806  11.8267  11.8484  11.8843  11.9553  12.0277  12.2297  12.4602
    12.5616  12.7149  12.8304  12.9796  13.2596  13.2824  13.4157  13.4651
    15.5085  15.5535  15.7148  15.8718  16.4818  16.6188  16.7514  16.8301
    17.0105  17.2022  17.5448  17.7477

          k =-0.5000-0.5047 0.1217 ( 20108 PWs)   bands (ev):

   -75.1747 -75.1679 -34.6524 -34.5712 -34.5054 -34.5006 -34.4781 -34.4169
    -8.0870  -6.8141  -6.7907  -6.6526  -6.4627  -6.1816  -6.0823  -5.9970
    -5.9541  -5.8721  -5.8394  -5.6771  -4.2042  -4.1926  -4.1806  -4.1677
    -4.1592  -4.1452  -4.1380  -4.1154  -4.1050  -4.0986  -4.0885  -4.0706
    -4.0471  -4.0364  -4.0071  -3.9806  -3.9513  -3.9281  -3.8463  -3.7635
     3.2825   3.2908   3.5377   3.9979   4.4713   4.8070   5.4383   5.6600
     5.7527   5.8655   6.0807   6.6746   6.7267   6.8066   6.9539   7.3561
     7.4014   7.5232   7.5825   7.8672   7.9471   8.0083   8.1561   8.2727
     8.3203   8.4649   8.5609   8.6885   8.9335   9.0631   9.1772   9.2642
     9.4396   9.6175   9.7303   9.7927  10.0772  10.2389  10.9846  11.1748
    11.2118  11.2737  11.9968  12.0269  12.0781  12.0968  12.2682  12.3626
    12.5634  12.7030  12.9738  12.9820  13.0426  13.1357  13.4511  13.5225
    14.5725  14.6961  15.8234  15.9207  16.1187  16.3058  16.5522  16.6597
    17.3975  17.4283  17.4725  17.7074

          k =-0.5000-0.5047-0.3586 ( 20112 PWs)   bands (ev):

   -75.1747 -75.1679 -34.6524 -34.5712 -34.5054 -34.5006 -34.4782 -34.4169
    -8.0847  -6.7768  -6.7507  -6.5800  -6.5385  -6.1820  -6.1610  -6.0169
    -5.9647  -5.8766  -5.8192  -5.7035  -4.1893  -4.1825  -4.1784  -4.1672
    -4.1547  -4.1451  -4.1437  -4.1149  -4.1094  -4.0879  -4.0720  -4.0467
    -4.0303  -4.0152  -3.9983  -3.9715  -3.9435  -3.9258  -3.8940  -3.8350
     3.2865   3.5355   3.6544   3.7151   4.3636   5.0119   5.5804   5.7394
     5.7851   5.9193   6.0164   6.6984   6.7191   6.7839   7.1187   7.1506
     7.2312   7.3763   7.4859   7.7955   7.8256   7.9026   8.1741   8.3764
     8.4325   8.5843   8.6326   8.7526   8.7686   8.9198   8.9386   9.0163
     9.5411   9.5957   9.7781   9.9042  10.2769  10.3999  10.4963  10.6279
    11.7546  11.7806  11.8330  11.8899  12.0590  12.0790  12.3409  12.4257
    12.6097  12.6886  12.9636  13.0162  13.1521  13.2899  13.3957  13.4886
    15.2169  15.3432  15.4536  15.5721  16.3341  16.5440  16.7869  16.9552
    17.0242  17.1978  17.3577  17.4698

          k =-0.1667 0.1682-0.1195 ( 20076 PWs)   bands (ev):

   -75.1747 -75.1679 -34.6524 -34.5712 -34.5054 -34.5006 -34.4781 -34.4168
    -8.1509  -7.1287  -6.7850  -6.5562  -6.3052  -6.1953  -6.0808  -6.0497
    -5.9996  -5.9492  -5.8742  -5.6385  -4.1989  -4.1804  -4.1680  -4.1489
    -4.1366  -4.1294  -4.1179  -4.1039  -4.0975  -4.0838  -4.0648  -4.0554
    -4.0245  -4.0085  -3.9586  -3.9460  -3.8771  -3.8270  -3.7716  -3.7249
     3.0466   3.8004   3.8890   4.4946   4.6482   5.0043   5.2115   5.5299
     5.5839   5.7917   5.8911   5.9948   6.3141   6.6118   6.6962   6.9553
     7.0552   7.1431   7.2895   7.4013   7.7422   7.8886   8.1243   8.3758
     8.5873   8.7018   8.9109   8.9991   9.2058   9.2519   9.3206   9.3885
     9.4507   9.6212   9.7465  10.0037  10.1371  10.3453  10.4924  11.0000
    11.2218  11.4082  11.4894  11.5163  12.0172  12.0313  12.1462  12.3123
    12.5055  12.7269  12.7805  12.8906  13.0319  13.1495  13.2101  13.4020
    14.9911  15.9340  16.4107  16.6279  16.7173  16.8987  17.0703  17.3577
    17.4175  17.4691  17.5710  17.6947

          k =-0.1667 0.1682 0.3608 ( 20081 PWs)   bands (ev):

   -75.1747 -75.1679 -34.6525 -34.5712 -34.5054 -34.5006 -34.4781 -34.4168
    -8.1428  -7.0548  -6.8624  -6.4840  -6.3708  -6.1915  -6.1397  -6.0614
    -6.0011  -5.9354  -5.8489  -5.6539  -4.1868  -4.1738  -4.1611  -4.1445
    -4.1372  -4.1294  -4.1151  -4.1105  -4.0992  -4.0750  -4.0489  -4.0336
    -4.0089  -3.9649  -3.9567  -3.9167  -3.8966  -3.8561  -3.8231  -3.7736
     3.2256   3.5022   4.1420   4.2159   4.7154   5.2551   5.4582   5.7342
     5.7906   5.8532   5.9205   5.9833   6.2386   6.2664   6.4415   6.9505
     6.9979   7.1353   7.2174   7.3257   7.6242   7.8442   8.0663   8.3349
     8.5003   8.7264   8.8228   8.9020   9.0247   9.1694   9.3842   9.5416
     9.6236   9.7400   9.8103   9.9329  10.0543  10.2100  10.6160  10.7241
    11.3996  11.4902  11.7943  11.8676  11.8948  11.9457  12.1151  12.3074
    12.5135  12.5797  12.6730  12.8760  13.0141  13.2140  13.3760  13.4239
    16.0181  16.0313  16.3622  16.4300  16.5076  16.7031  16.9688  17.1970
    17.2690  17.3350  17.6321  17.9466

          k =-0.1667 0.1682 0.1206 ( 20064 PWs)   bands (ev):

   -75.1747 -75.1679 -34.6524 -34.5712 -34.5054 -34.5005 -34.4781 -34.4168
    -8.1515  -7.1253  -6.7876  -6.5607  -6.3096  -6.1879  -6.0931  -6.0227
    -5.9857  -5.9675  -5.8813  -5.6391  -4.1991  -4.1790  -4.1618  -4.1549
    -4.1413  -4.1308  -4.1159  -4.1099  -4.0993  -4.0836  -4.0623  -4.0507
    -4.0212  -4.0094  -3.9567  -3.9392  -3.8904  -3.8208  -3.7755  -3.7239
     3.0297   3.8362   3.9775   4.3523   4.6576   5.0220   5.2223   5.5519
     5.6267   5.7998   5.8946   5.9355   6.4168   6.5364   6.7705   6.8140
     6.9605   7.0475   7.2879   7.3975   7.8144   7.9305   8.1392   8.4496
     8.6352   8.7821   8.9042   9.0050   9.0607   9.1901   9.3532   9.4443
     9.5318   9.5981   9.8576   9.9963  10.0964  10.3159  10.5119  10.9321
    11.1592  11.4146  11.4729  11.5487  11.9993  12.0486  12.1490  12.3380
    12.5274  12.6019  12.7942  12.9433  13.0136  13.1051  13.2153  13.4463
    15.0018  15.9671  16.4506  16.5887  16.8309  16.8535  16.9375  17.2622
    17.3046  17.4842  17.6949  17.8817

          k = 0.5000 0.1682-0.1217 ( 20080 PWs)   bands (ev):

   -75.1747 -75.1679 -34.6524 -34.5712 -34.5054 -34.5006 -34.4781 -34.4168
    -8.1101  -6.9701  -6.7741  -6.6486  -6.3333  -6.2369  -6.0895  -6.0633
    -5.9670  -5.9153  -5.8523  -5.6261  -4.1894  -4.1776  -4.1659  -4.1570
    -4.1523  -4.1442  -4.1414  -4.1180  -4.1043  -4.0932  -4.0818  -4.0436
    -4.0380  -4.0014  -3.9722  -3.9571  -3.9293  -3.8644  -3.8190  -3.7602
     3.2650   3.5801   3.6391   3.9569   4.7251   5.1601   5.3458   5.6647
     5.7819   5.9778   6.1244   6.2557   6.3270   6.4173   6.6888   7.0064
     7.1734   7.3833   7.5100   7.6186   7.8225   7.9461   8.1097   8.2614
     8.5057   8.6106   8.7523   8.9846   9.0474   9.1912   9.2803   9.3635
     9.4164   9.5429   9.5999   9.7305  10.0763  10.2685  10.4943  10.7540
    11.4719  11.5652  11.8394  11.9682  12.0024  12.0567  12.2992  12.5020
    12.5461  12.6487  12.8094  12.9173  13.1687  13.2670  13.2935  13.3538
    15.5478  15.6241  15.8526  16.0554  16.4491  16.6296  16.7015  16.8067
    17.0988  17.2123  17.5580  17.6479

     the Fermi energy is    12.6763 ev

!    total energy              =   -1473.03612657 Ry
     Harris-Foulkes estimate   =   -1473.03612657 Ry
     estimated scf accuracy    <          3.4E-13 Ry

     The total energy is the sum of the following terms:

     one-electron contribution =    -284.98324161 Ry
     hartree contribution      =     280.04819029 Ry
     xc contribution           =    -356.92840727 Ry
     ewald contribution        =   -1111.13171773 Ry
     smearing contrib. (-TS)   =      -0.04095026 Ry

     convergence has been achieved in  18 iterations

     Forces acting on atoms (Ry/au):

     atom    1 type  1   force =     0.00000112   -0.00005062    0.00004993
     atom    2 type  1   force =     0.00000160   -0.00003478   -0.00003811
     atom    3 type  1   force =    -0.00001181   -0.00002717   -0.00000863
     atom    4 type  1   force =    -0.00000952   -0.00003524   -0.00000625
     atom    5 type  2   force =     0.00004600    0.00000702    0.00001943
     atom    6 type  2   force =    -0.00003462   -0.00001306   -0.00003919
     atom    7 type  3   force =    -0.00001896   -0.00002365    0.00000082
     atom    8 type  3   force =     0.00002315    0.00000299    0.00000242
     atom    9 type  4   force =     0.00000272   -0.00002140   -0.00003866
     atom   10 type  4   force =    -0.00002172   -0.00004142    0.00007040
     atom   11 type  4   force =    -0.00001600    0.00005718    0.00007153
     atom   12 type  4   force =    -0.00000603    0.00006026   -0.00003490
     atom   13 type  4   force =    -0.00007223   -0.00000989    0.00001620
     atom   14 type  4   force =     0.00007863    0.00002879    0.00001068
     atom   15 type  4   force =     0.00004485    0.00006254   -0.00002459
     atom   16 type  4   force =    -0.00001679   -0.00001624    0.00001927
     atom   17 type  4   force =    -0.00004796   -0.00001881    0.00001767
     atom   18 type  4   force =    -0.00002191   -0.00002481   -0.00009716
     atom   19 type  4   force =     0.00003304    0.00001486    0.00000034
     atom   20 type  4   force =     0.00004889    0.00007471   -0.00001892
     atom   21 type  5   force =    -0.00000246    0.00000874    0.00002772

     Total force =     0.000289     Total SCF correction =     0.000002


     entering subroutine stress ...

          total   stress  (Ry/bohr**3)                   (kbar)     P=   38.28
   0.00032714  -0.00007138   0.00000817         48.12    -10.50      1.20
  -0.00007138   0.00017796  -0.00001400        -10.50     26.18     -2.06
   0.00000817  -0.00001400   0.00027554          1.20     -2.06     40.53


     bfgs converged in  71 scf cycles and  70 bfgs steps
     (criteria: energy <  1.0E-05, force <  1.0E-04)

     End of BFGS Geometry Optimization

     Final energy   =   -1473.0361265732 Ry
Begin final coordinates

ATOMIC_POSITIONS (crystal)
Pb1     -0.016977919   0.527271440   0.230393854
Pb1      0.997528625   0.484258280   0.764713321
Pb1      0.481996940   0.034110091   0.243397402
Pb1      0.481637203   0.984937054   0.761182918
Co1     -0.011997518   0.008508024  -0.000330287
Co1      0.534109022   0.498593579   0.505482016
Os1     -0.024394741   0.019819434   0.500977879
Os1      0.495825860   0.506150695  -0.000195177
O1       0.934456731   0.989411691   0.255914667
O1       0.045843360   0.020991151   0.746070431
O1       0.554632637   0.488129951   0.250153948
O1       0.443162685   0.515572216   0.752101729
O1       0.228739832   0.276436520   0.032429690
O1       0.767076299   0.725279948   0.972544058
O1       0.265699257   0.786681749   0.480499885
O1       0.689297499   0.198816850   0.527680752
O1       0.271299226   0.774951713   0.030448235
O1       0.712731289   0.228815485   0.970679860
O1       0.187692682   0.300810946   0.473295603
O1       0.806489002   0.707698720   0.526636066
XMU       0.190152030   0.623754462   0.490923150
End final coordinates



     Writing output data file PbCoOsO6.nmu1.rel.035701515.save
 
     init_run     :     10.79s CPU     11.47s WALL (       1 calls)
     electrons    :  16371.34s CPU  17915.81s WALL (      71 calls)
     update_pot   :    469.97s CPU    653.71s WALL (      70 calls)
     forces       :    498.04s CPU    508.48s WALL (      71 calls)
     stress       :   1316.67s CPU   1348.08s WALL (      71 calls)

     Called by init_run:
     wfcinit      :      3.15s CPU      3.43s WALL (       1 calls)
     potinit      :      2.65s CPU      2.68s WALL (       1 calls)

     Called by electrons:
     c_bands      :  12552.07s CPU  13419.57s WALL (    1521 calls)
     sum_band     :   2833.93s CPU   3177.54s WALL (    1521 calls)
     v_of_rho     :    114.14s CPU    132.74s WALL (    1558 calls)
     newd         :    884.93s CPU   1030.74s WALL (    1558 calls)
     mix_rho      :     16.91s CPU     21.45s WALL (    1521 calls)

     Called by c_bands:
     init_us_2    :    124.40s CPU    134.38s WALL (   44590 calls)
     cegterg      :  12024.33s CPU  12869.61s WALL (   21294 calls)

     Called by sum_band:
     sum_band:bec :      5.30s CPU      6.99s WALL (   21294 calls)
     addusdens    :   1185.77s CPU   1406.72s WALL (    1521 calls)

     Called by *egterg:
     h_psi        :   6489.34s CPU   7016.41s WALL (   63665 calls)
     s_psi        :    851.33s CPU    865.87s WALL (   63665 calls)
     g_psi        :     49.90s CPU     50.44s WALL (   42357 calls)
     cdiaghg      :   1940.58s CPU   1945.30s WALL (   62195 calls)

     Called by h_psi:
     h_psi:pot    :   6390.01s CPU   6915.56s WALL (   63665 calls)
     h_psi:calbec :    939.59s CPU    939.78s WALL (   63665 calls)
     vloc_psi     :   4578.40s CPU   5085.86s WALL (   63665 calls)
     add_vuspsi   :    871.47s CPU    889.42s WALL (   63665 calls)

     General routines
     calbec       :   1443.82s CPU   1443.75s WALL (   89929 calls)
     fft          :    126.17s CPU    143.33s WALL (   26625 calls)
     ffts         :      1.97s CPU      2.56s WALL (    3079 calls)
     fftw         :   4694.83s CPU   5280.70s WALL (12694088 calls)
     interpolate  :     11.65s CPU     17.43s WALL (    3079 calls)
 
     Parallel routines
     fft_scatter  :   1916.66s CPU   1913.88s WALL (12723792 calls)
 
     PWSCF        :     5h11m CPU        6h26m WALL

 
   This run was terminated on:  23: 0:32  18Mar2018            

=------------------------------------------------------------------------------=
   JOB DONE.
=------------------------------------------------------------------------------=
