
     Program PWSCF v.6.0 (svn rev. 13079) starts on 19Mar2018 at  6:26:36 

     This program is part of the open-source Quantum ESPRESSO suite
     for quantum simulation of materials; please cite
         "P. Giannozzi et al., J. Phys.:Condens. Matter 21 395502 (2009);
          URL http://www.quantum-espresso.org", 
     in publications or presentations arising from this work. More details at
     http://www.quantum-espresso.org/quote

     Parallel version (MPI), running on    16 processors
     R & G space division:  proc/nbgrp/npool/nimage =      16
     Waiting for input...
     Reading input from standard input

     Current dimensions of program PWSCF are:
     Max number of different atomic species (ntypx) = 10
     Max number of k-points (npk) =  40000
     Max angular momentum in pseudopotentials (lmaxx) =  3
               file Pb.pbe-dn-rrkjus_psl.1.0.0.UPF: wavefunction(s)  6S 5D renormalized
               file Co.pbe-nd-rrkjus.UPF: wavefunction(s)  4S 3D renormalized
               file O.pbe-rrkjus.UPF: wavefunction(s)  2S renormalized

     Subspace diagonalization in iterative solution of the eigenvalue problem:
     a serial algorithm will be used

 
     Parallelization info
     --------------------
     sticks:   dense  smooth     PW     G-vecs:    dense   smooth      PW
     Min         447     178     49                39678    10034    1462
     Max         448     179     50                39684    10037    1466
     Sum        7153    2861    793               634889   160567   23415
 


     bravais-lattice index     =          -12
     lattice parameter (alat)  =      10.6515  a.u.
     unit-cell volume          =    1661.5166 (a.u.)^3
     number of atoms/cell      =           21
     number of atomic types    =            5
     number of electrons       =       179.00
     number of Kohn-Sham states=          108
     kinetic-energy cutoff     =      80.0000  Ry
     charge density cutoff     =     800.0000  Ry
     convergence threshold     =      1.0E-10
     mixing beta               =       0.7000
     number of iterations used =            8  plain     mixing
     Exchange-correlation      =  SLA  PW   PBX  PBC ( 1  4  3  4 0 0)
     nstep                     =          500


     celldm(1)=  10.651460  celldm(2)=   0.990615  celldm(3)=   1.387953
     celldm(4)=   0.000000  celldm(5)=   0.003229  celldm(6)=   0.000000

     crystal axes: (cart. coord. in units of alat)
               a(1) = (   1.000000   0.000000   0.000000 )  
               a(2) = (   0.000000   0.990615   0.000000 )  
               a(3) = (   0.004481   0.000000   1.387946 )  

     reciprocal axes: (cart. coord. in units 2 pi/alat)
               b(1) = (  1.000000  0.000000 -0.003229 )  
               b(2) = (  0.000000  1.009474  0.000000 )  
               b(3) = (  0.000000  0.000000  0.720489 )  


     PseudoPot. # 1 for Pb read from file:
     /home/phys-musr/mert2601/pseudo/Pb.pbe-dn-rrkjus_psl.1.0.0.UPF
     MD5 check sum: 2b6b9e196840e0193c308501b9d7f8a8
     Pseudo is Ultrasoft + core correction, Zval = 14.0
     Generated using "atomic" code by A. Dal Corso  v.5.0.2 svn rev. 9656
     Using radial grid of 1281 points,  6 beta functions with: 
                l(1) =   0
                l(2) =   0
                l(3) =   1
                l(4) =   1
                l(5) =   2
                l(6) =   2
     Q(r) pseudized with 0 coefficients 


     PseudoPot. # 2 for Co read from file:
     /home/phys-musr/mert2601/pseudo/Co.pbe-nd-rrkjus.UPF
     MD5 check sum: 3e47a84addf5e975e0edeaeee2a73f59
     Pseudo is Ultrasoft + core correction, Zval =  9.0
     Generated by new atomic code, or converted to UPF format
     Using radial grid of  961 points,  6 beta functions with: 
                l(1) =   0
                l(2) =   0
                l(3) =   1
                l(4) =   1
                l(5) =   2
                l(6) =   2
     Q(r) pseudized with 0 coefficients 


     PseudoPot. # 3 for Os read from file:
     /home/phys-musr/mert2601/pseudo/Os.pbe-spn-rrkjus_psl.1.0.0.UPF
     MD5 check sum: 1900630a666269e0fb52cec33d227dc5
     Pseudo is Ultrasoft + core correction, Zval = 16.0
     Generated using "atomic" code by A. Dal Corso  v.5.0.2 svn rev. 9656
     Using radial grid of 1275 points,  6 beta functions with: 
                l(1) =   0
                l(2) =   0
                l(3) =   1
                l(4) =   1
                l(5) =   2
                l(6) =   2
     Q(r) pseudized with 0 coefficients 


     PseudoPot. # 4 for O  read from file:
     /home/phys-musr/mert2601/pseudo/O.pbe-rrkjus.UPF
     MD5 check sum: 390ba29e75625707450f3bd3f0eb6be9
     Pseudo is Ultrasoft, Zval =  6.0
     Generated by new atomic code, or converted to UPF format
     Using radial grid of 1269 points,  4 beta functions with: 
                l(1) =   0
                l(2) =   0
                l(3) =   1
                l(4) =   1
     Q(r) pseudized with 0 coefficients 


     PseudoPot. # 5 for H  read from file:
     /home/phys-musr/mert2601/pseudo/H.pbe-tm-dc.UPF
     MD5 check sum: c7e992f3be35a5ba2152290168345934
     Pseudo is Norm-conserving, Zval =  1.0
     Generated by new atomic code, or converted to UPF format
     Using radial grid of  929 points,  0 beta functions with: 

     atomic species   valence    mass     pseudopotential
        Pb1           14.00   207.20000     Pb( 1.00)
        Co1            9.00    58.93000     Co( 1.00)
        Os1           16.00   190.23000     Os( 1.00)
        O1             6.00    15.99900     O ( 1.00)
        XMU             1.00     0.11343     H ( 1.00)

     No symmetry found



   Cartesian axes

     site n.     atom                  positions (alat units)
         1           Pb1 tau(   1) = (   0.0069235   0.5069966   0.3479580  )
         2           Pb1 tau(   2) = (   0.9975580   0.4836181   1.0399876  )
         3           Pb1 tau(   3) = (   0.4953172   0.0116893   0.3460148  )
         4           Pb1 tau(   4) = (   0.5091643   0.9789255   1.0419308  )
         5           Co1 tau(   5) = (   0.0000000   0.0000000   0.0000000  )
         6           Co1 tau(   6) = (   0.5022407   0.4953074   0.6939728  )
         7           Os1 tau(   7) = (   0.0022407   0.0000000   0.6939728  )
         8           Os1 tau(   8) = (   0.5000000   0.4953074   0.0000000  )
         9           O1  tau(   9) = (   0.9350567   0.9813030   0.3582288  )
        10           O1  tau(  10) = (   0.0694248   0.0093118   1.0297168  )
        11           O1  tau(  11) = (   0.5671841   0.4859956   0.3357440  )
        12           O1  tau(  12) = (   0.4372974   0.5046192   1.0522016  )
        13           O1  tau(  13) = (   0.2413586   0.2795515   0.0491333  )
        14           O1  tau(  14) = (   0.7631228   0.7110633   1.3388123  )
        15           O1  tau(  15) = (   0.2608821   0.7748589   0.6448395  )
        16           O1  tau(  16) = (   0.7435994   0.2157559   0.7431061  )
        17           O1  tau(  17) = (   0.2824636   0.7574240   0.0506600  )
        18           O1  tau(  18) = (   0.7220179   0.2331907   1.3372856  )
        19           O1  tau(  19) = (   0.2197772   0.2621167   0.6433128  )
        20           O1  tau(  20) = (   0.7847043   0.7284981   0.7446328  )
        21           XMU  tau(  21) = (   0.0293092   0.4754951   0.0957682  )

     number of k points=    14  gaussian smearing, width (Ry)=  0.0200
                       cart. coord. in units 2pi/alat
        k(    1) = (   0.1666667   0.1682457   0.1195434), wk =   0.1481481
        k(    2) = (   0.1666667   0.1682457  -0.3607828), wk =   0.1481481
        k(    3) = (   0.1666667   0.1682457  -0.1206197), wk =   0.1481481
        k(    4) = (   0.1666667  -0.5047371   0.1195434), wk =   0.1481481
        k(    5) = (   0.1666667  -0.5047371  -0.3607828), wk =   0.1481481
        k(    6) = (   0.1666667  -0.5047371  -0.1206197), wk =   0.1481481
        k(    7) = (  -0.5000000   0.1682457   0.1216960), wk =   0.1481481
        k(    8) = (  -0.5000000   0.1682457  -0.3586302), wk =   0.1481481
        k(    9) = (  -0.5000000  -0.5047371   0.1216960), wk =   0.1481481
        k(   10) = (  -0.5000000  -0.5047371  -0.3586302), wk =   0.0740741
        k(   11) = (  -0.1666667   0.1682457  -0.1195434), wk =   0.1481481
        k(   12) = (  -0.1666667   0.1682457   0.3607828), wk =   0.1481481
        k(   13) = (  -0.1666667   0.1682457   0.1206197), wk =   0.1481481
        k(   14) = (   0.5000000   0.1682457  -0.1216960), wk =   0.1481481

     Dense  grid:   634889 G-vectors     FFT dimensions: (  96,  96, 135)

     Smooth grid:   160567 G-vectors     FFT dimensions: (  64,  64,  90)

     Estimated max dynamical RAM per process >      82.00Mb

     Estimated total allocated dynamical RAM >    1311.97Mb

     Check: negative/imaginary core charge=   -0.000005    0.000000

     Initial potential from superposition of free atoms

     starting charge  178.08905, renormalised to  179.00000
     Starting wfc are  117 randomized atomic wfcs

     total cpu time spent up to now is       24.3 secs

     Self-consistent Calculation

     iteration #  1     ecut=    80.00 Ry     beta=0.70
     Davidson diagonalization with overlap
     ethr =  1.00E-02,  avg # of iterations =  2.0

     total cpu time spent up to now is       48.4 secs

     total energy              =   -1437.03952500 Ry
     Harris-Foulkes estimate   =   -1476.46680625 Ry
     estimated scf accuracy    <      45.76664922 Ry

     iteration #  2     ecut=    80.00 Ry     beta=0.70
     Davidson diagonalization with overlap
     ethr =  1.00E-02,  avg # of iterations =  7.0

     total cpu time spent up to now is      102.0 secs

     total energy              =   -1386.24741449 Ry
     Harris-Foulkes estimate   =   -1595.42752881 Ry
     estimated scf accuracy    <    1003.72532894 Ry

     iteration #  3     ecut=    80.00 Ry     beta=0.70
     Davidson diagonalization with overlap
     ethr =  1.00E-02,  avg # of iterations =  7.5

     total cpu time spent up to now is      152.6 secs

     total energy              =   -1463.76265235 Ry
     Harris-Foulkes estimate   =   -1493.45044033 Ry
     estimated scf accuracy    <     129.33547823 Ry

     iteration #  4     ecut=    80.00 Ry     beta=0.70
     Davidson diagonalization with overlap
     ethr =  1.00E-02,  avg # of iterations =  3.4

     total cpu time spent up to now is      181.6 secs

     total energy              =   -1472.64460788 Ry
     Harris-Foulkes estimate   =   -1476.62398019 Ry
     estimated scf accuracy    <      29.69306893 Ry

     iteration #  5     ecut=    80.00 Ry     beta=0.70
     Davidson diagonalization with overlap
     ethr =  1.00E-02,  avg # of iterations =  1.0

     total cpu time spent up to now is      202.2 secs

     total energy              =   -1472.42325528 Ry
     Harris-Foulkes estimate   =   -1475.34055617 Ry
     estimated scf accuracy    <      34.73072957 Ry

     iteration #  6     ecut=    80.00 Ry     beta=0.70
     Davidson diagonalization with overlap
     ethr =  1.00E-02,  avg # of iterations =  1.0

     total cpu time spent up to now is      222.6 secs

     total energy              =   -1473.09513069 Ry
     Harris-Foulkes estimate   =   -1474.32232068 Ry
     estimated scf accuracy    <      13.77745271 Ry

     iteration #  7     ecut=    80.00 Ry     beta=0.70
     Davidson diagonalization with overlap
     ethr =  7.70E-03,  avg # of iterations =  1.0

     total cpu time spent up to now is      242.9 secs

     total energy              =   -1472.49174433 Ry
     Harris-Foulkes estimate   =   -1473.32398020 Ry
     estimated scf accuracy    <       7.00377594 Ry

     iteration #  8     ecut=    80.00 Ry     beta=0.70
     Davidson diagonalization with overlap
     ethr =  3.91E-03,  avg # of iterations =  1.0

     total cpu time spent up to now is      263.2 secs

     total energy              =   -1472.62096372 Ry
     Harris-Foulkes estimate   =   -1472.85943778 Ry
     estimated scf accuracy    <       1.18320513 Ry

     iteration #  9     ecut=    80.00 Ry     beta=0.70
     Davidson diagonalization with overlap
     ethr =  6.61E-04,  avg # of iterations =  1.9

     total cpu time spent up to now is      284.6 secs

     total energy              =   -1472.67666958 Ry
     Harris-Foulkes estimate   =   -1472.83960325 Ry
     estimated scf accuracy    <       3.01807319 Ry

     iteration # 10     ecut=    80.00 Ry     beta=0.70
     Davidson diagonalization with overlap
     ethr =  6.61E-04,  avg # of iterations =  1.3

     total cpu time spent up to now is      305.6 secs

     total energy              =   -1472.56984245 Ry
     Harris-Foulkes estimate   =   -1472.81797862 Ry
     estimated scf accuracy    <       2.58839811 Ry

     iteration # 11     ecut=    80.00 Ry     beta=0.70
     Davidson diagonalization with overlap
     ethr =  6.61E-04,  avg # of iterations =  1.1

     total cpu time spent up to now is      326.1 secs

     total energy              =   -1472.70806020 Ry
     Harris-Foulkes estimate   =   -1472.83945495 Ry
     estimated scf accuracy    <       2.02116600 Ry

     iteration # 12     ecut=    80.00 Ry     beta=0.70
     Davidson diagonalization with overlap
     ethr =  6.61E-04,  avg # of iterations =  1.0

     total cpu time spent up to now is      345.9 secs

     total energy              =   -1472.74228135 Ry
     Harris-Foulkes estimate   =   -1472.77148057 Ry
     estimated scf accuracy    <       0.24693958 Ry

     iteration # 13     ecut=    80.00 Ry     beta=0.70
     Davidson diagonalization with overlap
     ethr =  1.38E-04,  avg # of iterations =  4.5

     total cpu time spent up to now is      369.9 secs

     total energy              =   -1472.75388258 Ry
     Harris-Foulkes estimate   =   -1472.75698335 Ry
     estimated scf accuracy    <       0.01649675 Ry

     iteration # 14     ecut=    80.00 Ry     beta=0.70
     Davidson diagonalization with overlap
     ethr =  9.22E-06,  avg # of iterations =  6.7

     total cpu time spent up to now is      401.1 secs

     total energy              =   -1472.75305445 Ry
     Harris-Foulkes estimate   =   -1472.75693011 Ry
     estimated scf accuracy    <       0.03623865 Ry

     iteration # 15     ecut=    80.00 Ry     beta=0.70
     Davidson diagonalization with overlap
     ethr =  9.22E-06,  avg # of iterations =  1.4

     total cpu time spent up to now is      421.8 secs

     total energy              =   -1472.75435144 Ry
     Harris-Foulkes estimate   =   -1472.75619359 Ry
     estimated scf accuracy    <       0.02773835 Ry

     iteration # 16     ecut=    80.00 Ry     beta=0.70
     Davidson diagonalization with overlap
     ethr =  9.22E-06,  avg # of iterations =  1.0

     total cpu time spent up to now is      442.3 secs

     total energy              =   -1472.75499094 Ry
     Harris-Foulkes estimate   =   -1472.75567100 Ry
     estimated scf accuracy    <       0.01083968 Ry

     iteration # 17     ecut=    80.00 Ry     beta=0.70
     Davidson diagonalization with overlap
     ethr =  6.06E-06,  avg # of iterations =  1.0

     total cpu time spent up to now is      462.9 secs

     total energy              =   -1472.75527888 Ry
     Harris-Foulkes estimate   =   -1472.75533244 Ry
     estimated scf accuracy    <       0.00019259 Ry

     iteration # 18     ecut=    80.00 Ry     beta=0.70
     Davidson diagonalization with overlap
     ethr =  1.08E-07,  avg # of iterations =  3.7

     total cpu time spent up to now is      491.0 secs

     total energy              =   -1472.75527048 Ry
     Harris-Foulkes estimate   =   -1472.75536106 Ry
     estimated scf accuracy    <       0.00040964 Ry

     iteration # 19     ecut=    80.00 Ry     beta=0.70
     Davidson diagonalization with overlap
     ethr =  1.08E-07,  avg # of iterations =  2.2

     total cpu time spent up to now is      514.7 secs

     total energy              =   -1472.75530891 Ry
     Harris-Foulkes estimate   =   -1472.75531923 Ry
     estimated scf accuracy    <       0.00009540 Ry

     iteration # 20     ecut=    80.00 Ry     beta=0.70
     Davidson diagonalization with overlap
     ethr =  5.33E-08,  avg # of iterations =  1.0

     total cpu time spent up to now is      535.1 secs

     total energy              =   -1472.75531358 Ry
     Harris-Foulkes estimate   =   -1472.75531676 Ry
     estimated scf accuracy    <       0.00004308 Ry

     iteration # 21     ecut=    80.00 Ry     beta=0.70
     Davidson diagonalization with overlap
     ethr =  2.41E-08,  avg # of iterations =  1.0

     total cpu time spent up to now is      555.4 secs

     total energy              =   -1472.75531477 Ry
     Harris-Foulkes estimate   =   -1472.75531591 Ry
     estimated scf accuracy    <       0.00000362 Ry

     iteration # 22     ecut=    80.00 Ry     beta=0.70
     Davidson diagonalization with overlap
     ethr =  2.02E-09,  avg # of iterations =  2.0

     total cpu time spent up to now is      577.5 secs

     total energy              =   -1472.75531519 Ry
     Harris-Foulkes estimate   =   -1472.75531544 Ry
     estimated scf accuracy    <       0.00000087 Ry

     iteration # 23     ecut=    80.00 Ry     beta=0.70
     Davidson diagonalization with overlap
     ethr =  4.88E-10,  avg # of iterations =  2.0

     total cpu time spent up to now is      601.5 secs

     total energy              =   -1472.75531521 Ry
     Harris-Foulkes estimate   =   -1472.75531547 Ry
     estimated scf accuracy    <       0.00000231 Ry

     iteration # 24     ecut=    80.00 Ry     beta=0.70
     Davidson diagonalization with overlap
     ethr =  4.88E-10,  avg # of iterations =  2.0

     total cpu time spent up to now is      623.8 secs

     total energy              =   -1472.75531527 Ry
     Harris-Foulkes estimate   =   -1472.75531540 Ry
     estimated scf accuracy    <       0.00000101 Ry

     iteration # 25     ecut=    80.00 Ry     beta=0.70
     Davidson diagonalization with overlap
     ethr =  4.88E-10,  avg # of iterations =  1.9

     total cpu time spent up to now is      645.7 secs

     total energy              =   -1472.75531511 Ry
     Harris-Foulkes estimate   =   -1472.75531558 Ry
     estimated scf accuracy    <       0.00000768 Ry

     iteration # 26     ecut=    80.00 Ry     beta=0.70
     Davidson diagonalization with overlap
     ethr =  4.88E-10,  avg # of iterations =  1.1

     total cpu time spent up to now is      666.4 secs

     total energy              =   -1472.75531534 Ry
     Harris-Foulkes estimate   =   -1472.75531535 Ry
     estimated scf accuracy    <       0.00000016 Ry

     iteration # 27     ecut=    80.00 Ry     beta=0.70
     Davidson diagonalization with overlap
     ethr =  9.11E-11,  avg # of iterations =  1.3

     total cpu time spent up to now is      687.7 secs

     total energy              =   -1472.75531534 Ry
     Harris-Foulkes estimate   =   -1472.75531536 Ry
     estimated scf accuracy    <       0.00000018 Ry

     iteration # 28     ecut=    80.00 Ry     beta=0.70
     Davidson diagonalization with overlap
     ethr =  9.11E-11,  avg # of iterations =  1.0

     total cpu time spent up to now is      707.8 secs

     total energy              =   -1472.75531535 Ry
     Harris-Foulkes estimate   =   -1472.75531535 Ry
     estimated scf accuracy    <          4.8E-09 Ry

     iteration # 29     ecut=    80.00 Ry     beta=0.70
     Davidson diagonalization with overlap
     ethr =  2.67E-12,  avg # of iterations =  2.1

     total cpu time spent up to now is      731.0 secs

     total energy              =   -1472.75531535 Ry
     Harris-Foulkes estimate   =   -1472.75531535 Ry
     estimated scf accuracy    <          1.5E-09 Ry

     iteration # 30     ecut=    80.00 Ry     beta=0.70
     Davidson diagonalization with overlap
     ethr =  8.34E-13,  avg # of iterations =  2.1

     total cpu time spent up to now is      756.2 secs

     total energy              =   -1472.75531535 Ry
     Harris-Foulkes estimate   =   -1472.75531535 Ry
     estimated scf accuracy    <       0.00000004 Ry

     iteration # 31     ecut=    80.00 Ry     beta=0.70
     Davidson diagonalization with overlap
     ethr =  8.34E-13,  avg # of iterations =  2.0

     total cpu time spent up to now is      779.7 secs

     total energy              =   -1472.75531535 Ry
     Harris-Foulkes estimate   =   -1472.75531535 Ry
     estimated scf accuracy    <          3.8E-10 Ry

     iteration # 32     ecut=    80.00 Ry     beta=0.70
     Davidson diagonalization with overlap
     ethr =  2.11E-13,  avg # of iterations =  1.3

     total cpu time spent up to now is      800.1 secs

     total energy              =   -1472.75531535 Ry
     Harris-Foulkes estimate   =   -1472.75531535 Ry
     estimated scf accuracy    <          1.2E-10 Ry

     iteration # 33     ecut=    80.00 Ry     beta=0.70
     Davidson diagonalization with overlap
     ethr =  1.00E-13,  avg # of iterations =  1.4

     total cpu time spent up to now is      820.6 secs

     End of self-consistent calculation

          k = 0.1667 0.1682 0.1195 ( 20076 PWs)   bands (ev):

   -75.5563 -75.5150 -34.9738 -34.9343 -34.8944 -34.8824 -34.8697 -34.8218
    -7.4385  -7.0523  -6.6263  -6.4983  -6.3155  -6.2616  -6.1363  -6.0432
    -5.9835  -5.9411  -5.9138  -5.8700  -5.3104  -4.6610  -4.5809  -4.5123
    -4.4719  -4.1713  -4.1591  -4.1445  -4.1373  -4.1193  -4.0985  -4.0824
    -4.0573  -4.0480  -4.0141  -3.9875  -3.9725  -3.8518  -3.8413  -3.8299
     2.3892   3.6677   3.9764   4.3619   4.8228   5.1076   5.2298   5.4365
     5.5044   5.6237   5.8163   5.9777   6.2744   6.3807   6.6677   7.0686
     7.1367   7.2092   7.3533   7.4165   7.8229   7.9475   8.2140   8.5184
     8.6862   8.8438   8.9273   9.0087   9.1788   9.2327   9.3732   9.4685
     9.5110   9.6912   9.7514   9.9704  10.0942  10.2365  10.4788  10.8240
    11.2778  11.4407  11.5762  11.6087  12.0078  12.0218  12.1785  12.2263
    12.5066  12.5444  12.7557  12.8517  13.0258  13.0785  13.2139  13.3540
    13.4914  15.7851  16.0791  16.5462  16.9410  17.0131  17.1073  17.3938
    17.5049  17.6045  17.8502  17.8980

          k = 0.1667 0.1682-0.3608 ( 20081 PWs)   bands (ev):

   -75.5563 -75.5150 -34.9738 -34.9343 -34.8944 -34.8824 -34.8697 -34.8218
    -7.3546  -7.1376  -6.5986  -6.4079  -6.3831  -6.3057  -6.1277  -6.0790
    -5.9861  -5.9537  -5.9191  -5.8647  -5.3034  -4.6611  -4.5686  -4.5048
    -4.4702  -4.1546  -4.1463  -4.1393  -4.1256  -4.1133  -4.0931  -4.0760
    -4.0646  -4.0402  -4.0192  -3.9733  -3.9507  -3.9062  -3.8758  -3.8490
     2.4272   3.6532   3.9651   4.2058   5.1576   5.1810   5.4200   5.5074
     5.5947   5.6891   5.8754   5.9270   6.1283   6.1630   6.7503   6.9807
     7.1268   7.2401   7.2756   7.3986   7.6181   7.7895   8.2717   8.3804
     8.5878   8.6755   8.8629   8.9245   9.0184   9.3118   9.3849   9.4957
     9.6785   9.7578   9.8539   9.9566  10.0791  10.1746  10.4543  10.7028
    11.4613  11.5812  11.8405  11.8810  11.9376  11.9666  12.1578  12.3405
    12.4152  12.5884  12.6671  12.8648  12.9926  13.0593  13.1861  13.2083
    13.7834  15.9685  16.4025  16.5633  16.6460  16.7740  17.1342  17.3315
    17.5091  17.5728  17.7481  17.8744

          k = 0.1667 0.1682-0.1206 ( 20064 PWs)   bands (ev):

   -75.5563 -75.5150 -34.9738 -34.9343 -34.8944 -34.8824 -34.8697 -34.8218
    -7.4359  -7.0576  -6.6269  -6.5018  -6.3099  -6.2675  -6.1432  -5.9957
    -5.9852  -5.9538  -5.9141  -5.8866  -5.3137  -4.6607  -4.5780  -4.5105
    -4.4730  -4.1685  -4.1569  -4.1464  -4.1350  -4.1184  -4.0992  -4.0829
    -4.0550  -4.0465  -4.0168  -3.9841  -3.9763  -3.8515  -3.8449  -3.8372
     2.3869   3.6871   3.9648   4.3997   4.8221   5.0719   5.2746   5.3752
     5.5330   5.6999   5.7215   5.9271   6.3189   6.4936   6.6963   6.9035
     7.0737   7.2216   7.2946   7.3777   7.9356   8.0445   8.1574   8.4552
     8.7343   8.8304   8.9040   9.0257   9.1064   9.1993   9.4202   9.4952
     9.5346   9.7098   9.8683  10.0279  10.1098  10.2812  10.4678  10.7788
    11.1678  11.4915  11.5584  11.6191  11.9968  12.0649  12.1947  12.2193
    12.4693  12.5347  12.7170  12.8582  12.9902  13.0701  13.1533  13.3030
    13.5087  15.9607  16.1591  16.6451  16.7698  17.0036  17.2219  17.3032
    17.4782  17.6188  17.8343  17.9370

          k = 0.1667-0.5047 0.1195 ( 20082 PWs)   bands (ev):

   -75.5563 -75.5150 -34.9738 -34.9343 -34.8944 -34.8824 -34.8697 -34.8218
    -7.2551  -7.0205  -6.6718  -6.5119  -6.3713  -6.2872  -6.1308  -6.0974
    -5.9728  -5.9073  -5.8795  -5.8439  -5.3278  -4.6683  -4.5758  -4.5243
    -4.4787  -4.2000  -4.1664  -4.1546  -4.1334  -4.1229  -4.1085  -4.0899
    -4.0632  -4.0551  -4.0271  -4.0130  -3.9494  -3.9321  -3.8787  -3.8747
     2.4337   3.6097   3.7434   3.9182   5.0518   5.0804   5.4127   5.4667
     5.9218   5.9541   6.0683   6.1210   6.1432   6.3736   6.9659   7.1628
     7.2836   7.3616   7.5445   7.6444   7.7084   7.8883   8.0331   8.0549
     8.5704   8.5965   8.7160   8.7643   8.8996   9.0513   9.2595   9.3989
     9.5830   9.6102   9.7470   9.8037  10.1062  10.2696  10.5238  10.7194
    11.5759  11.6226  11.8556  11.9879  12.0284  12.0407  12.3640  12.4038
    12.6274  12.8626  12.9452  12.9771  13.0776  13.0880  13.2257  13.2681
    13.9110  15.5947  15.6516  15.9658  16.3392  16.6349  16.8882  16.9190
    17.2110  17.5902  17.6502  17.7491

          k = 0.1667-0.5047-0.3608 ( 20066 PWs)   bands (ev):

   -75.5563 -75.5150 -34.9738 -34.9343 -34.8944 -34.8824 -34.8697 -34.8218
    -7.2390  -6.9911  -6.6318  -6.4815  -6.3748  -6.2969  -6.2142  -6.1928
    -5.9964  -5.9019  -5.8419  -5.8150  -5.3269  -4.6693  -4.5704  -4.5239
    -4.4760  -4.1903  -4.1676  -4.1544  -4.1464  -4.1141  -4.0979  -4.0850
    -4.0617  -4.0539  -4.0396  -3.9955  -3.9402  -3.9282  -3.9093  -3.8856
     2.4125   3.6159   3.8782   3.9676   5.1618   5.2208   5.3901   5.5114
     5.8551   6.0451   6.1113   6.1488   6.2526   6.2634   6.9302   6.9842
     7.0384   7.0734   7.4420   7.5026   7.7958   7.9499   8.0174   8.1092
     8.1701   8.2801   8.7033   8.9717   9.1835   9.2230   9.4029   9.4690
     9.5431   9.6103   9.7788   9.8101  10.0659  10.2905  10.5381  10.6616
    11.7600  11.8549  11.8998  11.9108  12.0026  12.0435  12.2326  12.5617
    12.6371  12.7521  12.9708  13.0052  13.1184  13.1392  13.2855  13.3018
    13.8326  15.5725  15.6949  15.7959  16.2126  16.8069  16.8633  16.8833
    17.2311  17.4633  17.5220  17.7206

          k = 0.1667-0.5047-0.1206 ( 20072 PWs)   bands (ev):

   -75.5563 -75.5150 -34.9738 -34.9343 -34.8944 -34.8824 -34.8697 -34.8218
    -7.2544  -7.0210  -6.6778  -6.5108  -6.3663  -6.2904  -6.1406  -6.0831
    -5.9654  -5.8960  -5.8849  -5.8564  -5.3313  -4.6671  -4.5760  -4.5239
    -4.4771  -4.1990  -4.1661  -4.1551  -4.1340  -4.1219  -4.1068  -4.0916
    -4.0690  -4.0475  -4.0265  -4.0023  -3.9530  -3.9324  -3.8867  -3.8807
     2.4313   3.5991   3.7580   3.9287   5.0464   5.0738   5.4846   5.5280
     5.8820   5.9859   6.0230   6.0894   6.1509   6.2910   6.9815   7.0198
     7.2184   7.3342   7.6411   7.6994   7.8022   7.9925   8.0470   8.0825
     8.3294   8.4423   8.7448   8.8883   9.0769   9.1795   9.3194   9.3807
     9.3985   9.4304   9.7688   9.7955  10.0465  10.2744  10.6995  10.8593
    11.5541  11.5927  11.8448  11.9673  12.0132  12.0320  12.3826  12.4780
    12.4948  12.7437  12.9777  13.0137  13.0917  13.1118  13.2219  13.2461
    13.9131  15.5655  15.6340  16.0385  16.4024  16.4996  16.9211  17.0970
    17.2345  17.5579  17.5911  17.7807

          k =-0.5000 0.1682 0.1217 ( 20080 PWs)   bands (ev):

   -75.5563 -75.5150 -34.9738 -34.9343 -34.8944 -34.8824 -34.8697 -34.8218
    -7.2281  -7.0294  -6.6902  -6.5072  -6.3562  -6.2740  -6.2333  -6.0877
    -5.9392  -5.8868  -5.8620  -5.8534  -5.3047  -4.6621  -4.5855  -4.5357
    -4.4942  -4.1781  -4.1638  -4.1464  -4.1313  -4.1267  -4.1189  -4.0970
    -4.0782  -4.0513  -4.0348  -4.0111  -3.9603  -3.9173  -3.8854  -3.8729
     2.4868   3.5863   3.7492   3.8867   5.0150   5.0907   5.3817   5.5079
     5.7585   5.9740   6.0190   6.1067   6.1366   6.2631   6.7887   7.0427
     7.2576   7.4322   7.5242   7.7126   7.8255   8.0680   8.1107   8.2037
     8.4917   8.6301   8.9570   9.0481   9.1774   9.2489   9.3100   9.4461
     9.5052   9.5758   9.6704   9.6980   9.9577  10.0829  10.5318  10.6316
    11.5772  11.6136  11.8477  11.9938  12.0292  12.0585  12.4082  12.5094
    12.5514  12.6910  12.8079  12.8862  13.0797  13.1043  13.2674  13.3177
    13.6158  15.6457  15.7235  15.9792  16.5565  16.6950  16.9650  17.1754
    17.2486  17.4613  17.5600  17.6427

          k =-0.5000 0.1682-0.3586 ( 20076 PWs)   bands (ev):

   -75.5563 -75.5150 -34.9738 -34.9343 -34.8944 -34.8824 -34.8697 -34.8218
    -7.2115  -7.0024  -6.6475  -6.4755  -6.3616  -6.3160  -6.2598  -6.1849
    -5.9666  -5.8865  -5.8510  -5.8170  -5.2968  -4.6653  -4.5793  -4.5346
    -4.4935  -4.1669  -4.1604  -4.1441  -4.1383  -4.1288  -4.1190  -4.0869
    -4.0745  -4.0585  -4.0453  -4.0005  -3.9535  -3.9147  -3.9004  -3.8819
     2.4898   3.5978   3.7495   3.9575   5.1691   5.2880   5.3501   5.5352
     5.8515   6.0319   6.0872   6.1331   6.1934   6.2743   6.4885   6.9185
     7.0677   7.2970   7.4633   7.5679   7.7575   7.9779   8.0040   8.1737
     8.2518   8.3156   9.0370   9.1933   9.3259   9.3637   9.4383   9.5083
     9.6341   9.7004   9.7974   9.8900   9.9340  10.0376  10.3593  10.4244
    11.8298  11.8918  11.8971  11.9188  11.9784  12.0346  12.2560  12.5333
    12.5752  12.7382  12.8660  12.9670  13.1488  13.1978  13.2489  13.2898
    13.5383  15.5194  15.8597  15.9507  16.2826  16.5823  16.9685  17.1015
    17.1827  17.3603  17.5754  17.6722

          k =-0.5000-0.5047 0.1217 ( 20108 PWs)   bands (ev):

   -75.5563 -75.5150 -34.9738 -34.9343 -34.8944 -34.8824 -34.8697 -34.8218
    -7.1612  -6.9456  -6.7273  -6.6099  -6.3512  -6.2050  -6.1802  -6.0533
    -5.9439  -5.8789  -5.8587  -5.8356  -5.3210  -4.6760  -4.5871  -4.5629
    -4.4992  -4.1991  -4.1670  -4.1622  -4.1423  -4.1316  -4.1153  -4.1050
    -4.1024  -4.0784  -4.0665  -4.0282  -3.9823  -3.9661  -3.8889  -3.8864
     2.3850   3.3128   3.6419   3.9968   4.6455   4.6920   5.5677   5.5933
     5.8667   5.9486   6.0785   6.3663   6.4575   6.5737   6.9321   7.4245
     7.4873   7.5046   7.7759   7.9395   8.0796   8.1138   8.2058   8.2626
     8.4630   8.5492   8.6398   8.7115   8.9287   9.0399   9.1577   9.1915
     9.5200   9.5779   9.7087   9.7711  10.0020  10.0228  10.9835  11.1961
    11.3147  11.3236  12.0498  12.0536  12.0647  12.0846  12.2645  12.2788
    12.6191  12.6295  12.8698  13.0589  13.0956  13.1361  13.4841  13.5504
    13.7348  14.7367  14.7506  16.0858  16.1465  16.3704  16.6924  16.7322
    17.1718  17.3097  17.3947  17.7219

          k =-0.5000-0.5047-0.3586 ( 20112 PWs)   bands (ev):

   -75.5563 -75.5150 -34.9738 -34.9343 -34.8944 -34.8824 -34.8697 -34.8219
    -7.1514  -6.9211  -6.6831  -6.5944  -6.3544  -6.2646  -6.2025  -5.9829
    -5.9739  -5.9677  -5.8607  -5.8358  -5.3164  -4.6739  -4.5786  -4.5622
    -4.4927  -4.1807  -4.1687  -4.1560  -4.1449  -4.1294  -4.1265  -4.1038
    -4.0899  -4.0740  -4.0394  -4.0150  -3.9923  -3.9678  -3.9316  -3.9055
     2.3966   3.5951   3.6487   3.6566   4.8076   4.8685   5.5685   5.5876
     5.8673   6.0013   6.0309   6.3811   6.4346   6.9289   7.0278   7.0519
     7.2739   7.3217   7.7440   7.8891   7.8989   7.9193   8.3845   8.4913
     8.5588   8.5913   8.6316   8.6630   8.7749   8.9089   8.9602   8.9658
     9.6674   9.7079   9.7874   9.7982  10.0716  10.4197  10.5111  10.5523
    11.8450  11.8542  11.8659  11.8685  12.0904  12.0936  12.3844  12.4151
    12.5803  12.5997  12.8583  13.0359  13.1722  13.3214  13.3873  13.4150
    13.7729  15.4459  15.5160  15.6353  15.6555  16.6337  16.7346  16.8747
    17.2160  17.3142  17.3605  17.4518

          k =-0.1667 0.1682-0.1195 ( 20076 PWs)   bands (ev):

   -75.5563 -75.5150 -34.9738 -34.9343 -34.8944 -34.8824 -34.8697 -34.8218
    -7.4478  -7.0482  -6.6234  -6.4366  -6.3663  -6.2550  -6.1302  -6.0631
    -6.0073  -5.9466  -5.9240  -5.8292  -5.3139  -4.6674  -4.5786  -4.5086
    -4.4686  -4.1679  -4.1609  -4.1376  -4.1244  -4.1078  -4.0999  -4.0950
    -4.0808  -4.0508  -4.0169  -3.9848  -3.9760  -3.8565  -3.8495  -3.8084
     2.3913   3.6752   3.9824   4.3469   4.8035   5.0729   5.2054   5.4694
     5.5076   5.6121   5.8714   5.9774   6.2837   6.3290   6.7582   7.0250
     7.1307   7.2384   7.3624   7.4509   7.8542   7.9156   8.2175   8.4355
     8.7060   8.8045   8.9091   9.0820   9.1445   9.1975   9.3746   9.4665
     9.4996   9.6498   9.8531   9.9665  10.1094  10.2313  10.4477  10.8537
    11.2659  11.4963  11.5892  11.6356  12.0060  12.0294  12.1088  12.1823
    12.4443  12.5517  12.7520  12.8577  13.0322  13.0736  13.2043  13.3609
    13.5363  15.7820  16.0932  16.6793  16.8694  16.9850  17.1453  17.3243
    17.4762  17.6020  17.8273  17.9042

          k =-0.1667 0.1682 0.3608 ( 20081 PWs)   bands (ev):

   -75.5563 -75.5150 -34.9738 -34.9343 -34.8944 -34.8824 -34.8697 -34.8218
    -7.3661  -7.1351  -6.5789  -6.3949  -6.3335  -6.3200  -6.1849  -6.0829
    -6.0246  -5.9702  -5.8806  -5.8442  -5.3068  -4.6603  -4.5682  -4.5050
    -4.4683  -4.1553  -4.1477  -4.1403  -4.1247  -4.1045  -4.1005  -4.0905
    -4.0657  -4.0222  -4.0037  -3.9835  -3.9692  -3.8955  -3.8777  -3.8475
     2.4324   3.6481   3.9635   4.2108   5.0495   5.2097   5.4461   5.5078
     5.6055   5.6556   5.8930   5.9565   6.1541   6.1764   6.8043   6.9466
     7.1169   7.2534   7.2859   7.3979   7.6654   7.7170   8.2884   8.4090
     8.5075   8.6606   8.8897   8.9333   9.0548   9.3049   9.3858   9.4691
     9.6467   9.7116   9.8997   9.9685  10.0936  10.1795  10.4740  10.6621
    11.4958  11.5963  11.8503  11.8713  11.9492  11.9650  12.1811  12.2305
    12.4311  12.5962  12.6303  12.8652  12.9616  13.0520  13.1904  13.2156
    13.8324  15.9931  16.4290  16.5333  16.7277  16.9110  17.1272  17.2131
    17.4348  17.5490  17.7192  17.8178

          k =-0.1667 0.1682 0.1206 ( 20064 PWs)   bands (ev):

   -75.5563 -75.5150 -34.9738 -34.9343 -34.8944 -34.8824 -34.8697 -34.8218
    -7.4434  -7.0575  -6.6253  -6.4318  -6.3684  -6.2601  -6.1284  -6.0483
    -5.9997  -5.9474  -5.9146  -5.8537  -5.3120  -4.6650  -4.5757  -4.5126
    -4.4715  -4.1711  -4.1608  -4.1372  -4.1289  -4.1035  -4.1002  -4.0884
    -4.0715  -4.0479  -4.0118  -3.9902  -3.9759  -3.8595  -3.8472  -3.8245
     2.3923   3.6500   3.9927   4.3857   4.7939   5.0872   5.2615   5.4119
     5.5512   5.6957   5.7683   5.9349   6.2656   6.4144   6.7365   6.9177
     7.1055   7.2312   7.3232   7.4099   7.9018   8.0660   8.1562   8.4276
     8.6711   8.8138   8.9300   9.0330   9.1295   9.1422   9.4094   9.4496
     9.5147   9.7750   9.9001  10.0466  10.1172  10.2862  10.4444  10.7603
    11.1655  11.5406  11.5595  11.6309  12.0065  12.0547  12.1354  12.2134
    12.4821  12.5066  12.7134  12.8519  12.9839  13.0508  13.1559  13.3687
    13.5532  15.9185  16.0937  16.6896  16.8699  16.9930  17.2044  17.2577
    17.4596  17.6697  17.8296  17.9055

          k = 0.5000 0.1682-0.1217 ( 20080 PWs)   bands (ev):

   -75.5563 -75.5150 -34.9738 -34.9343 -34.8944 -34.8824 -34.8697 -34.8218
    -7.2292  -7.0283  -6.6886  -6.5047  -6.3640  -6.2717  -6.2253  -6.1022
    -5.9285  -5.8876  -5.8810  -5.8363  -5.3042  -4.6633  -4.5822  -4.5361
    -4.4962  -4.1803  -4.1634  -4.1407  -4.1280  -4.1258  -4.1206  -4.0982
    -4.0766  -4.0510  -4.0421  -4.0168  -3.9606  -3.9162  -3.8868  -3.8669
     2.4865   3.5762   3.7470   3.9055   5.0353   5.0670   5.4223   5.5053
     5.6898   5.9755   6.0408   6.0725   6.1495   6.2690   6.8064   7.0406
     7.2481   7.4473   7.5644   7.6598   7.8552   8.0239   8.1410   8.2390
     8.4206   8.6208   9.0092   9.0570   9.1973   9.2163   9.2988   9.4332
     9.5223   9.5843   9.6567   9.7311   9.9724  10.0439  10.5248  10.6366
    11.5866  11.6094  11.8573  11.9773  12.0221  12.0588  12.4277  12.4938
    12.5460  12.7069  12.8103  12.8806  13.0877  13.1020  13.2645  13.2877
    13.6317  15.6538  15.7170  16.0142  16.5312  16.7416  16.8964  17.1181
    17.2855  17.4390  17.5967  17.7257

     the Fermi energy is    12.6570 ev

!    total energy              =   -1472.75531535 Ry
     Harris-Foulkes estimate   =   -1472.75531535 Ry
     estimated scf accuracy    <          8.5E-11 Ry

     The total energy is the sum of the following terms:

     one-electron contribution =    -292.76108679 Ry
     hartree contribution      =     283.48080192 Ry
     xc contribution           =    -356.92306104 Ry
     ewald contribution        =   -1106.51200965 Ry
     smearing contrib. (-TS)   =      -0.03995979 Ry

     convergence has been achieved in  33 iterations

     Forces acting on atoms (Ry/au):

     atom    1 type  1   force =    -0.04763957    0.05648302    0.37731769
     atom    2 type  1   force =    -0.00235645   -0.00241717   -0.01079417
     atom    3 type  1   force =     0.00718014    0.00191737    0.00507624
     atom    4 type  1   force =     0.00125969   -0.00448845   -0.00125194
     atom    5 type  2   force =    -0.00340230   -0.00314050   -0.00484589
     atom    6 type  2   force =    -0.00030275    0.00166594    0.00341881
     atom    7 type  3   force =    -0.00459866    0.00483360    0.01820195
     atom    8 type  3   force =     0.01109700    0.00805884   -0.00855256
     atom    9 type  4   force =    -0.00144548   -0.00615219   -0.03471148
     atom   10 type  4   force =     0.00453706    0.00150995    0.03181478
     atom   11 type  4   force =     0.00838060    0.00008694    0.03216785
     atom   12 type  4   force =    -0.00283816   -0.00092463   -0.02706812
     atom   13 type  4   force =    -0.01624519   -0.03307776   -0.01289435
     atom   14 type  4   force =     0.02478950    0.03505094   -0.00771908
     atom   15 type  4   force =     0.02118912   -0.03659348   -0.01338575
     atom   16 type  4   force =    -0.02664490    0.02955661    0.00079275
     atom   17 type  4   force =    -0.02373907    0.01482284   -0.00036959
     atom   18 type  4   force =     0.02670563   -0.02888452   -0.00185665
     atom   19 type  4   force =     0.01261624    0.02538153   -0.01183170
     atom   20 type  4   force =    -0.01205551   -0.02041522   -0.00331471
     atom   21 type  5   force =     0.02351305   -0.04327366   -0.33019407

     Total force =     0.524563     Total SCF correction =     0.000033


     entering subroutine stress ...

          total   stress  (Ry/bohr**3)                   (kbar)     P=   69.57
   0.00032925  -0.00006396  -0.00009636         48.43     -9.41    -14.17
  -0.00006396   0.00027825   0.00009679         -9.41     40.93     14.24
  -0.00009636   0.00009679   0.00081122        -14.17     14.24    119.33


     BFGS Geometry Optimization

     number of scf cycles    =   1
     number of bfgs steps    =   0

     energy   new            =   -1472.7553153502 Ry

     new trust radius        =       0.3844847168 bohr
     new conv_thr            =            1.0E-10 Ry


ATOMIC_POSITIONS (crystal)
Pb1      0.001213035   0.517153083   0.276222639
Pb1      0.993982039   0.487970917   0.748569858
Pb1      0.494872561   0.011981715   0.249643368
Pb1      0.505918644   0.987774615   0.750615316
Co1     -0.000317952  -0.000297636  -0.000327787
Co1      0.499970540   0.500157887   0.500231256
Os1     -0.000437258   0.000458096   0.501231222
Os1      0.501044422   0.500763763  -0.000578515
O1       0.933774815   0.990016937   0.255752036
O1       0.066516312   0.009543103   0.744052025
O1       0.566877051   0.490608240   0.244075907
O1       0.433641748   0.509312370   0.756269050
O1       0.239678748   0.279065111   0.034527796
O1       0.761129674   0.721121894   0.964077863
O1       0.260793374   0.778731915   0.463694557
O1       0.738698234   0.220601178   0.535453624
O1       0.280071397   0.766004810   0.036475000
O1       0.720207790   0.232662518   0.963374412
O1       0.218888047   0.267005492   0.462699677
O1       0.781169187   0.733465182   0.536275785
XMU       0.031307590   0.475898812   0.046664911



     Writing output data file PbCoOsO6.nmu1.rel.029480069.save
     NEW-OLD atomic charge density approx. for the potential

     Check: negative/imaginary core charge=   -0.000005    0.000000

     total cpu time spent up to now is      918.9 secs

     Self-consistent Calculation

     iteration #  1     ecut=    80.00 Ry     beta=0.70
     Davidson diagonalization with overlap
     ethr =  1.00E-06,  avg # of iterations = 14.3

     total cpu time spent up to now is      981.3 secs

     total energy              =   -1472.81491792 Ry
     Harris-Foulkes estimate   =   -1472.90305829 Ry
     estimated scf accuracy    <       0.12198950 Ry

     iteration #  2     ecut=    80.00 Ry     beta=0.70
     Davidson diagonalization with overlap
     ethr =  6.82E-05,  avg # of iterations =  4.9

     total cpu time spent up to now is     1015.6 secs

     total energy              =   -1472.41069582 Ry
     Harris-Foulkes estimate   =   -1473.66845095 Ry
     estimated scf accuracy    <      17.65280781 Ry

     iteration #  3     ecut=    80.00 Ry     beta=0.70
     Davidson diagonalization with overlap
     ethr =  6.82E-05,  avg # of iterations =  5.0

     total cpu time spent up to now is     1048.0 secs

     total energy              =   -1472.67686281 Ry
     Harris-Foulkes estimate   =   -1473.11520534 Ry
     estimated scf accuracy    <       5.63841303 Ry

     iteration #  4     ecut=    80.00 Ry     beta=0.70
     Davidson diagonalization with overlap
     ethr =  6.82E-05,  avg # of iterations =  4.0

     total cpu time spent up to now is     1073.8 secs

     total energy              =   -1472.83709282 Ry
     Harris-Foulkes estimate   =   -1472.91008440 Ry
     estimated scf accuracy    <       0.59405228 Ry

     iteration #  5     ecut=    80.00 Ry     beta=0.70
     Davidson diagonalization with overlap
     ethr =  6.82E-05,  avg # of iterations =  4.7

     total cpu time spent up to now is     1101.2 secs

     total energy              =   -1472.85002006 Ry
     Harris-Foulkes estimate   =   -1472.91769041 Ry
     estimated scf accuracy    <       0.90378895 Ry

     iteration #  6     ecut=    80.00 Ry     beta=0.70
     Davidson diagonalization with overlap
     ethr =  6.82E-05,  avg # of iterations =  2.0

     total cpu time spent up to now is     1122.6 secs

     total energy              =   -1472.86802517 Ry
     Harris-Foulkes estimate   =   -1472.90628555 Ry
     estimated scf accuracy    <       0.42020937 Ry

     iteration #  7     ecut=    80.00 Ry     beta=0.70
     Davidson diagonalization with overlap
     ethr =  6.82E-05,  avg # of iterations =  1.1

     total cpu time spent up to now is     1142.8 secs

     total energy              =   -1472.88569718 Ry
     Harris-Foulkes estimate   =   -1472.88727942 Ry
     estimated scf accuracy    <       0.01058452 Ry

     iteration #  8     ecut=    80.00 Ry     beta=0.70
     Davidson diagonalization with overlap
     ethr =  5.91E-06,  avg # of iterations =  5.9

     total cpu time spent up to now is     1171.0 secs

     total energy              =   -1472.88647046 Ry
     Harris-Foulkes estimate   =   -1472.88687865 Ry
     estimated scf accuracy    <       0.00145199 Ry

     iteration #  9     ecut=    80.00 Ry     beta=0.70
     Davidson diagonalization with overlap
     ethr =  8.11E-07,  avg # of iterations =  2.3

     total cpu time spent up to now is     1195.4 secs

     total energy              =   -1472.88664258 Ry
     Harris-Foulkes estimate   =   -1472.88682494 Ry
     estimated scf accuracy    <       0.00106022 Ry

     iteration # 10     ecut=    80.00 Ry     beta=0.70
     Davidson diagonalization with overlap
     ethr =  5.92E-07,  avg # of iterations =  1.1

     total cpu time spent up to now is     1214.9 secs

     total energy              =   -1472.88671470 Ry
     Harris-Foulkes estimate   =   -1472.88674046 Ry
     estimated scf accuracy    <       0.00010942 Ry

     iteration # 11     ecut=    80.00 Ry     beta=0.70
     Davidson diagonalization with overlap
     ethr =  6.11E-08,  avg # of iterations =  2.0

     total cpu time spent up to now is     1239.9 secs

     total energy              =   -1472.88672408 Ry
     Harris-Foulkes estimate   =   -1472.88674277 Ry
     estimated scf accuracy    <       0.00010892 Ry

     iteration # 12     ecut=    80.00 Ry     beta=0.70
     Davidson diagonalization with overlap
     ethr =  6.08E-08,  avg # of iterations =  2.0

     total cpu time spent up to now is     1262.3 secs

     total energy              =   -1472.88672232 Ry
     Harris-Foulkes estimate   =   -1472.88674263 Ry
     estimated scf accuracy    <       0.00030383 Ry

     iteration # 13     ecut=    80.00 Ry     beta=0.70
     Davidson diagonalization with overlap
     ethr =  6.08E-08,  avg # of iterations =  1.0

     total cpu time spent up to now is     1282.6 secs

     total energy              =   -1472.88673170 Ry
     Harris-Foulkes estimate   =   -1472.88673456 Ry
     estimated scf accuracy    <       0.00004430 Ry

     iteration # 14     ecut=    80.00 Ry     beta=0.70
     Davidson diagonalization with overlap
     ethr =  2.47E-08,  avg # of iterations =  1.0

     total cpu time spent up to now is     1303.4 secs

     total energy              =   -1472.88673319 Ry
     Harris-Foulkes estimate   =   -1472.88673377 Ry
     estimated scf accuracy    <       0.00000611 Ry

     iteration # 15     ecut=    80.00 Ry     beta=0.70
     Davidson diagonalization with overlap
     ethr =  3.41E-09,  avg # of iterations =  1.0

     total cpu time spent up to now is     1324.1 secs

     total energy              =   -1472.88673343 Ry
     Harris-Foulkes estimate   =   -1472.88673353 Ry
     estimated scf accuracy    <       0.00000040 Ry

     iteration # 16     ecut=    80.00 Ry     beta=0.70
     Davidson diagonalization with overlap
     ethr =  2.24E-10,  avg # of iterations =  2.0

     total cpu time spent up to now is     1347.6 secs

     total energy              =   -1472.88673344 Ry
     Harris-Foulkes estimate   =   -1472.88673356 Ry
     estimated scf accuracy    <       0.00000076 Ry

     iteration # 17     ecut=    80.00 Ry     beta=0.70
     Davidson diagonalization with overlap
     ethr =  2.24E-10,  avg # of iterations =  1.9

     total cpu time spent up to now is     1369.3 secs

     total energy              =   -1472.88673347 Ry
     Harris-Foulkes estimate   =   -1472.88673352 Ry
     estimated scf accuracy    <       0.00000060 Ry

     iteration # 18     ecut=    80.00 Ry     beta=0.70
     Davidson diagonalization with overlap
     ethr =  2.24E-10,  avg # of iterations =  1.0

     total cpu time spent up to now is     1390.5 secs

     total energy              =   -1472.88673349 Ry
     Harris-Foulkes estimate   =   -1472.88673351 Ry
     estimated scf accuracy    <       0.00000021 Ry

     iteration # 19     ecut=    80.00 Ry     beta=0.70
     Davidson diagonalization with overlap
     ethr =  1.17E-10,  avg # of iterations =  1.0

     total cpu time spent up to now is     1410.9 secs

     total energy              =   -1472.88673350 Ry
     Harris-Foulkes estimate   =   -1472.88673350 Ry
     estimated scf accuracy    <          2.7E-09 Ry

     iteration # 20     ecut=    80.00 Ry     beta=0.70
     Davidson diagonalization with overlap
     ethr =  1.51E-12,  avg # of iterations =  2.1

     total cpu time spent up to now is     1435.2 secs

     total energy              =   -1472.88673350 Ry
     Harris-Foulkes estimate   =   -1472.88673350 Ry
     estimated scf accuracy    <          2.4E-09 Ry

     iteration # 21     ecut=    80.00 Ry     beta=0.70
     Davidson diagonalization with overlap
     ethr =  1.37E-12,  avg # of iterations =  1.4

     total cpu time spent up to now is     1456.1 secs

     total energy              =   -1472.88673350 Ry
     Harris-Foulkes estimate   =   -1472.88673350 Ry
     estimated scf accuracy    <          1.2E-09 Ry

     iteration # 22     ecut=    80.00 Ry     beta=0.70
     Davidson diagonalization with overlap
     ethr =  6.65E-13,  avg # of iterations =  1.0

     total cpu time spent up to now is     1475.8 secs

     End of self-consistent calculation

          k = 0.1667 0.1682 0.1195 ( 20076 PWs)   bands (ev):

   -75.4429 -75.4363 -34.8550 -34.8507 -34.7877 -34.7862 -34.7542 -34.7157
    -7.3563  -7.0022  -6.5553  -6.4502  -6.3424  -6.1976  -6.1519  -6.0614
    -6.0134  -5.9212  -5.8964  -5.8615  -4.3688  -4.2603  -4.2221  -4.1922
    -4.1858  -4.1610  -4.1428  -4.1352  -4.1234  -4.1083  -4.0902  -4.0732
    -4.0504  -4.0289  -4.0144  -3.9963  -3.9231  -3.8690  -3.8300  -3.8047
     2.8762   3.8051   3.9831   4.4405   4.8508   5.0563   5.2155   5.4924
     5.5513   5.6767   5.8214   5.9532   6.3690   6.4925   6.7777   7.0247
     7.1077   7.1978   7.3540   7.4006   7.7828   7.9474   8.2129   8.4982
     8.6931   8.8163   8.8398   9.0599   9.1721   9.2064   9.3946   9.4399
     9.5003   9.6844   9.7865   9.9123  10.0752  10.2478  10.4852  10.8598
    11.2273  11.4011  11.4901  11.5683  11.9668  11.9764  12.1383  12.1897
    12.4839  12.5171  12.7214  12.8369  13.0115  13.0464  13.1722  13.2874
    13.5304  15.8461  16.1108  16.5775  16.8971  16.9501  17.1083  17.3633
    17.4348  17.6079  17.7003  17.7657

          k = 0.1667 0.1682-0.3608 ( 20081 PWs)   bands (ev):

   -75.4429 -75.4363 -34.8550 -34.8507 -34.7877 -34.7862 -34.7542 -34.7157
    -7.1922  -7.1788  -6.4591  -6.4275  -6.3467  -6.3103  -6.1704  -6.0499
    -6.0403  -5.9175  -5.8858  -5.8598  -4.3549  -4.2568  -4.2153  -4.1869
    -4.1804  -4.1667  -4.1431  -4.1359  -4.1256  -4.0970  -4.0843  -4.0600
    -4.0430  -4.0150  -3.9907  -3.9320  -3.9282  -3.9155  -3.8755  -3.8662
     3.0295   3.5330   4.1007   4.2055   5.1541   5.2399   5.4589   5.5737
     5.6135   5.7837   5.8705   5.9875   6.1734   6.2306   6.8004   6.9914
     7.0878   7.2009   7.2298   7.3674   7.6088   7.8009   8.3081   8.3487
     8.6057   8.6729   8.8092   8.9216   9.0616   9.2464   9.4081   9.4781
     9.6252   9.7488   9.8426   9.8978  10.1024  10.1361  10.5240  10.6792
    11.4161  11.5026  11.8065  11.8384  11.8933  11.9281  12.1357  12.3097
    12.4074  12.5485  12.6192  12.8318  12.9506  13.0207  13.1934  13.2100
    13.8806  15.8715  16.4360  16.5574  16.6173  16.7297  16.9952  17.2325
    17.4132  17.5155  17.7556  17.7855

          k = 0.1667 0.1682-0.1206 ( 20064 PWs)   bands (ev):

   -75.4429 -75.4362 -34.8550 -34.8507 -34.7877 -34.7862 -34.7542 -34.7157
    -7.3532  -7.0096  -6.5614  -6.4502  -6.3325  -6.1994  -6.1461  -6.0524
    -5.9823  -5.9512  -5.9151  -5.8565  -4.3677  -4.2541  -4.2278  -4.1924
    -4.1882  -4.1587  -4.1492  -4.1362  -4.1168  -4.1019  -4.0898  -4.0768
    -4.0515  -4.0246  -4.0035  -3.9944  -3.9366  -3.8597  -3.8332  -3.8185
     2.8674   3.8457   3.9726   4.4586   4.8616   5.0091   5.2520   5.4465
     5.5975   5.7200   5.7768   5.8995   6.4214   6.5498   6.7876   6.8807
     7.0882   7.1904   7.2556   7.3753   7.9342   8.0058   8.1640   8.4971
     8.7278   8.7775   8.8843   8.9841   9.1177   9.1617   9.4049   9.4826
     9.5370   9.6688   9.9208   9.9677  10.1250  10.2925  10.4734  10.8115
    11.1211  11.4451  11.4792  11.5745  11.9518  12.0225  12.1462  12.1853
    12.4441  12.5103  12.6846  12.8353  12.9671  13.0218  13.1305  13.2881
    13.4985  16.0411  16.2498  16.6693  16.7726  16.9711  17.1606  17.2664
    17.4238  17.5497  17.6808  17.8025

          k = 0.1667-0.5047 0.1195 ( 20082 PWs)   bands (ev):

   -75.4429 -75.4363 -34.8551 -34.8507 -34.7877 -34.7862 -34.7542 -34.7157
    -7.0811  -7.0283  -6.6295  -6.5015  -6.3691  -6.2652  -6.1525  -6.0861
    -5.9942  -5.8933  -5.8666  -5.8175  -4.3891  -4.2552  -4.2292  -4.2057
    -4.1853  -4.1625  -4.1571  -4.1442  -4.1299  -4.1173  -4.0821  -4.0765
    -4.0483  -4.0317  -4.0109  -3.9942  -3.9632  -3.9532  -3.8796  -3.8612
     3.1141   3.6372   3.7046   3.9165   5.0851   5.1366   5.4068   5.5380
     5.9260   6.0297   6.0611   6.1243   6.1520   6.4023   7.1026   7.1535
     7.2955   7.3283   7.5252   7.6292   7.7653   7.9169   7.9637   8.0246
     8.5393   8.6069   8.7017   8.7613   8.8568   9.0012   9.2256   9.3325
     9.5582   9.5842   9.7450   9.7872  10.2106  10.2764  10.5656  10.7172
    11.5311  11.5695  11.7806  11.9421  11.9875  11.9942  12.3274  12.3699
    12.5751  12.7875  12.9085  12.9400  13.0675  13.0903  13.2211  13.2490
    14.0337  15.6385  15.7127  15.9439  16.3372  16.6382  16.7663  16.8406
    17.1464  17.4346  17.4943  17.7034

          k = 0.1667-0.5047-0.3608 ( 20066 PWs)   bands (ev):

   -75.4429 -75.4363 -34.8550 -34.8507 -34.7877 -34.7862 -34.7542 -34.7157
    -7.0498  -7.0055  -6.5756  -6.5153  -6.3139  -6.3003  -6.2707  -6.1589
    -6.0002  -5.9099  -5.8343  -5.7747  -4.3822  -4.2588  -4.2263  -4.1983
    -4.1765  -4.1706  -4.1562  -4.1503  -4.1393  -4.1148  -4.0868  -4.0683
    -4.0536  -4.0213  -3.9853  -3.9806  -3.9501  -3.9413  -3.9110  -3.9006
     3.0466   3.6463   3.8745   3.9741   5.1696   5.3085   5.3763   5.5693
     5.9207   6.1004   6.1352   6.1893   6.2890   6.3030   6.9014   6.9346
     7.0516   7.0705   7.4623   7.4960   7.7781   7.8936   8.0623   8.0759
     8.1337   8.2993   8.6940   8.9186   9.1405   9.2184   9.3876   9.4150
     9.5392   9.6162   9.7368   9.8074  10.1690  10.2808  10.5715  10.6315
    11.7525  11.8167  11.8396  11.8664  11.9589  12.0190  12.1813  12.5109
    12.6151  12.6965  12.9032  12.9619  13.1136  13.1265  13.2722  13.3004
    13.9721  15.6234  15.6856  15.8117  16.1980  16.6419  16.7544  16.8078
    17.0944  17.3061  17.4423  17.5993

          k = 0.1667-0.5047-0.1206 ( 20072 PWs)   bands (ev):

   -75.4429 -75.4363 -34.8550 -34.8507 -34.7877 -34.7862 -34.7542 -34.7157
    -7.0820  -7.0278  -6.6357  -6.4978  -6.3702  -6.2709  -6.1417  -6.0736
    -5.9845  -5.9099  -5.8756  -5.8143  -4.3912  -4.2587  -4.2303  -4.2048
    -4.1782  -4.1675  -4.1589  -4.1363  -4.1320  -4.1165  -4.0932  -4.0636
    -4.0501  -4.0235  -4.0074  -3.9942  -3.9650  -3.9536  -3.8834  -3.8702
     3.1130   3.6186   3.7217   3.9323   5.0788   5.1384   5.4671   5.5997
     5.8180   5.9937   6.0776   6.1467   6.2367   6.3230   6.9704   7.0167
     7.2752   7.3380   7.6122   7.6935   7.8153   7.9686   8.0817   8.1151
     8.2716   8.4324   8.6931   8.8540   8.9805   9.1701   9.3115   9.3506
     9.3707   9.4478   9.7413   9.7749  10.1360  10.2766  10.7587  10.8425
    11.5087  11.5474  11.7682  11.9294  11.9690  11.9988  12.3371  12.4412
    12.4720  12.6756  12.9346  12.9702  13.0854  13.1024  13.1964  13.2271
    14.0347  15.6216  15.6474  16.0357  16.3732  16.4931  16.8392  17.0332
    17.1608  17.4116  17.4511  17.7329

          k =-0.5000 0.1682 0.1217 ( 20080 PWs)   bands (ev):

   -75.4429 -75.4363 -34.8550 -34.8507 -34.7877 -34.7862 -34.7542 -34.7157
    -7.0856  -7.0314  -6.6364  -6.5088  -6.3345  -6.2331  -6.1543  -6.1257
    -5.9964  -5.9045  -5.8621  -5.8078  -4.3732  -4.2566  -4.2365  -4.2031
    -4.1874  -4.1745  -4.1589  -4.1517  -4.1372  -4.1244  -4.0915  -4.0746
    -4.0658  -4.0196  -4.0026  -3.9795  -3.9751  -3.9371  -3.8782  -3.8529
     3.1730   3.6134   3.6972   3.9037   5.0880   5.1318   5.3826   5.5536
     5.7644   5.9327   6.0670   6.1339   6.2082   6.3564   6.7442   7.0388
     7.1896   7.4187   7.5307   7.6534   7.7891   8.0346   8.0986   8.2432
     8.5100   8.6265   9.0141   9.0971   9.1741   9.2148   9.2761   9.3860
     9.5071   9.5841   9.6425   9.6831   9.9662  10.0653  10.5453  10.6264
    11.5251  11.5676  11.8042  11.9306  11.9907  12.0203  12.3839  12.4892
    12.5261  12.6720  12.7654  12.8442  13.0776  13.1021  13.2351  13.2762
    13.6742  15.6994  15.7913  15.9194  16.5964  16.7372  16.9065  17.0375
    17.2011  17.3903  17.4992  17.6421

          k =-0.5000 0.1682-0.3586 ( 20076 PWs)   bands (ev):

   -75.4429 -75.4363 -34.8550 -34.8507 -34.7877 -34.7862 -34.7542 -34.7157
    -7.0466  -7.0208  -6.5647  -6.5339  -6.3023  -6.2719  -6.2646  -6.1615
    -6.0098  -5.9051  -5.8430  -5.7797  -4.3664  -4.2605  -4.2327  -4.2003
    -4.1948  -4.1639  -4.1606  -4.1522  -4.1341  -4.1194  -4.1125  -4.0826
    -4.0506  -4.0090  -3.9990  -3.9762  -3.9588  -3.9284  -3.8999  -3.8754
     3.1786   3.6479   3.6820   3.9543   5.2626   5.3034   5.3934   5.5947
     5.8530   6.0421   6.1223   6.1627   6.2404   6.3206   6.4551   6.9001
     7.0665   7.2698   7.4128   7.5319   7.7272   7.8995   7.9927   8.1695
     8.3064   8.3442   9.0680   9.1671   9.3215   9.3803   9.4317   9.4914
     9.6097   9.6718   9.7995   9.8862   9.9510  10.0422  10.3407  10.3869
    11.7902  11.8473  11.8620  11.8746  11.9526  11.9766  12.2678  12.4777
    12.5321  12.7122  12.8825  12.9298  13.1601  13.1890  13.2386  13.2616
    13.5590  15.4934  15.8772  16.0294  16.2642  16.5584  16.8657  16.9769
    17.0654  17.3085  17.4224  17.6778

          k =-0.5000-0.5047 0.1217 ( 20108 PWs)   bands (ev):

   -75.4429 -75.4363 -34.8551 -34.8507 -34.7877 -34.7862 -34.7543 -34.7157
    -6.9989  -6.9398  -6.7275  -6.5767  -6.2923  -6.1720  -6.1390  -6.0883
    -6.0391  -5.8560  -5.8403  -5.8235  -4.3987  -4.2634  -4.2500  -4.2110
    -4.1870  -4.1750  -4.1586  -4.1499  -4.1304  -4.1203  -4.1026  -4.0905
    -4.0776  -4.0663  -4.0499  -4.0430  -3.9950  -3.9769  -3.8772  -3.8689
     3.0536   3.3464   3.6186   3.9998   4.6929   4.7397   5.6131   5.6434
     5.8434   5.9029   6.1079   6.4082   6.5815   6.7023   6.8550   7.3986
     7.4709   7.5121   7.7527   7.9462   8.0724   8.1134   8.1392   8.2436
     8.4255   8.4424   8.5932   8.6621   9.0074   9.0632   9.1223   9.1680
     9.5038   9.5950   9.7320   9.7764   9.9905  10.0365  11.1017  11.1855
    11.2451  11.2587  12.0019  12.0114  12.0232  12.0500  12.2253  12.2358
    12.5989  12.6044  12.8943  12.9806  13.0522  13.0899  13.4803  13.4971
    13.7736  14.7700  14.8137  16.1221  16.1945  16.3407  16.5805  16.6292
    17.1375  17.3827  17.4505  17.6424

          k =-0.5000-0.5047-0.3586 ( 20112 PWs)   bands (ev):

   -75.4429 -75.4363 -34.8551 -34.8507 -34.7877 -34.7862 -34.7543 -34.7157
    -6.9686  -6.9336  -6.6801  -6.5827  -6.2539  -6.2477  -6.1412  -6.1096
    -6.0489  -5.9006  -5.8473  -5.8156  -4.3885  -4.2586  -4.2389  -4.1989
    -4.1856  -4.1710  -4.1648  -4.1607  -4.1333  -4.1217  -4.0992  -4.0920
    -4.0657  -4.0574  -4.0248  -4.0049  -3.9935  -3.9586  -3.9419  -3.9188
     3.0688   3.6158   3.6405   3.6609   4.8624   4.9024   5.6333   5.6405
     5.8588   5.9595   6.0489   6.4252   6.5876   6.8955   7.0163   7.1175
     7.2833   7.3147   7.7267   7.7932   7.8581   7.8993   8.3563   8.3949
     8.5464   8.5658   8.5850   8.7051   8.7810   8.8992   8.9077   8.9685
     9.6485   9.6584   9.7145   9.8102  10.3544  10.4311  10.4831  10.5305
    11.8013  11.8176  11.8277  11.8318  12.0236  12.0684  12.3554  12.3751
    12.5558  12.5902  12.8629  12.9579  13.1678  13.2938  13.3421  13.3461
    13.8360  15.5700  15.5988  15.6318  15.6627  16.4601  16.6683  16.7730
    17.1346  17.2259  17.3638  17.3855

          k =-0.1667 0.1682-0.1195 ( 20076 PWs)   bands (ev):

   -75.4429 -75.4363 -34.8550 -34.8507 -34.7877 -34.7862 -34.7542 -34.7157
    -7.3637  -7.0090  -6.5544  -6.4101  -6.3166  -6.1943  -6.1424  -6.0844
    -6.0546  -5.9712  -5.9082  -5.7998  -4.3686  -4.2619  -4.2250  -4.1949
    -4.1745  -4.1583  -4.1482  -4.1262  -4.1170  -4.1126  -4.0913  -4.0797
    -4.0651  -4.0288  -4.0140  -3.9970  -3.9211  -3.8676  -3.8373  -3.7926
     2.8749   3.8266   3.9937   4.4136   4.8283   5.0155   5.1742   5.5292
     5.5696   5.6450   5.8821   5.9854   6.3825   6.4287   6.8603   7.0196
     7.1033   7.2452   7.3193   7.4284   7.8126   7.9107   8.2133   8.4306
     8.7223   8.7477   8.9141   9.0169   9.1543   9.1887   9.3586   9.4367
     9.4969   9.7012   9.8304   9.9192  10.1138  10.2236  10.4772  10.8723
    11.2200  11.4480  11.5365  11.5890  11.9665  11.9916  12.0521  12.1445
    12.4197  12.5197  12.7128  12.8308  13.0120  13.0533  13.1666  13.2995
    13.5777  15.8249  16.1669  16.5946  16.9142  16.9495  17.1383  17.2717
    17.4400  17.5561  17.6999  17.7985

          k =-0.1667 0.1682 0.3608 ( 20081 PWs)   bands (ev):

   -75.4429 -75.4363 -34.8550 -34.8507 -34.7877 -34.7862 -34.7542 -34.7157
    -7.2034  -7.1833  -6.4504  -6.4193  -6.3335  -6.2171  -6.1493  -6.1123
    -6.0994  -5.9939  -5.8829  -5.7940  -4.3567  -4.2540  -4.2169  -4.1942
    -4.1797  -4.1491  -4.1440  -4.1292  -4.1240  -4.1065  -4.0978  -4.0708
    -4.0305  -4.0139  -3.9817  -3.9510  -3.9282  -3.8971  -3.8827  -3.8650
     3.0380   3.5322   4.0886   4.2227   5.1094   5.1755   5.4416   5.5662
     5.6762   5.7305   5.8961   5.9869   6.2150   6.2841   6.8678   6.9833
     7.0978   7.1953   7.2412   7.3576   7.6781   7.7438   8.2732   8.4101
     8.4878   8.6457   8.7979   8.9212   9.0625   9.2963   9.3860   9.4528
     9.6494   9.7073   9.8714   9.9619  10.0735  10.1528  10.5355  10.6386
    11.4389  11.5446  11.8137  11.8267  11.9090  11.9259  12.1673  12.1974
    12.4027  12.5508  12.5923  12.7906  12.9260  13.0245  13.1973  13.2305
    13.9286  15.8700  16.4144  16.5245  16.7638  16.9179  17.0820  17.1447
    17.3230  17.4580  17.5669  17.6822

          k =-0.1667 0.1682 0.1206 ( 20064 PWs)   bands (ev):

   -75.4429 -75.4362 -34.8550 -34.8507 -34.7877 -34.7862 -34.7542 -34.7157
    -7.3612  -7.0151  -6.5580  -6.4039  -6.3194  -6.2015  -6.1374  -6.0764
    -6.0457  -5.9570  -5.9142  -5.8202  -4.3646  -4.2595  -4.2218  -4.1991
    -4.1762  -4.1627  -4.1478  -4.1275  -4.1204  -4.1157  -4.0985  -4.0668
    -4.0536  -4.0196  -4.0101  -3.9936  -3.9334  -3.8622  -3.8434  -3.8059
     2.8814   3.7871   4.0011   4.4471   4.8205   5.0513   5.2191   5.4800
     5.6029   5.7448   5.8010   5.9347   6.3427   6.4949   6.8382   6.8889
     7.1288   7.1946   7.3196   7.4094   7.8825   8.0316   8.1542   8.4461
     8.6175   8.7971   8.8941   9.0254   9.0787   9.1332   9.4150   9.4558
     9.4852   9.7858   9.8988   9.9885  10.1076  10.3131  10.4705  10.7913
    11.1240  11.4682  11.5208  11.5911  11.9679  12.0147  12.0805  12.1729
    12.4589  12.4782  12.6679  12.8200  12.9601  13.0217  13.1193  13.3346
    13.5688  16.0259  16.1754  16.6400  16.8736  17.0151  17.1868  17.2211
    17.4183  17.5793  17.6687  17.7691

          k = 0.5000 0.1682-0.1217 ( 20080 PWs)   bands (ev):

   -75.4429 -75.4363 -34.8550 -34.8507 -34.7877 -34.7862 -34.7542 -34.7157
    -7.0894  -7.0264  -6.6366  -6.5086  -6.3374  -6.2301  -6.1710  -6.1096
    -6.0011  -5.8938  -5.8733  -5.8029  -4.3706  -4.2588  -4.2324  -4.2040
    -4.1943  -4.1721  -4.1612  -4.1517  -4.1330  -4.1219  -4.0955  -4.0831
    -4.0468  -4.0340  -3.9971  -3.9805  -3.9780  -3.9382  -3.8700  -3.8573
     3.1713   3.6124   3.6861   3.9204   5.0924   5.1232   5.4255   5.5570
     5.7078   5.9791   6.0299   6.1304   6.1826   6.3660   6.7678   6.9871
     7.2214   7.4317   7.5424   7.6570   7.7965   8.0206   8.1277   8.2359
     8.4753   8.5956   9.0243   9.1059   9.1921   9.2210   9.3025   9.4107
     9.5064   9.5538   9.6399   9.6651   9.9735  10.0700  10.5141  10.6457
    11.5378  11.5573  11.8131  11.9134  11.9804  12.0226  12.4089  12.4917
    12.5090  12.6668  12.7794  12.8417  13.0775  13.1006  13.2327  13.2682
    13.6753  15.6814  15.7567  16.0244  16.5937  16.7124  16.8666  16.9974
    17.2350  17.3409  17.5353  17.6497

     the Fermi energy is    12.6240 ev

!    total energy              =   -1472.88673350 Ry
     Harris-Foulkes estimate   =   -1472.88673350 Ry
     estimated scf accuracy    <          9.9E-11 Ry

     The total energy is the sum of the following terms:

     one-electron contribution =    -287.50744587 Ry
     hartree contribution      =     281.04579129 Ry
     xc contribution           =    -356.76223090 Ry
     ewald contribution        =   -1109.62272641 Ry
     smearing contrib. (-TS)   =      -0.04012161 Ry

     convergence has been achieved in  22 iterations

     Forces acting on atoms (Ry/au):

     atom    1 type  1   force =    -0.01839179    0.01538800    0.04431568
     atom    2 type  1   force =    -0.00125272   -0.00238108   -0.00392560
     atom    3 type  1   force =     0.00591360    0.00281381    0.00126458
     atom    4 type  1   force =    -0.00020197   -0.00334016    0.00196222
     atom    5 type  2   force =    -0.00336446   -0.00542506    0.00046448
     atom    6 type  2   force =    -0.00315378    0.00052764    0.00397290
     atom    7 type  3   force =     0.00095476    0.01092443    0.00610466
     atom    8 type  3   force =     0.00817765    0.00932160    0.00891690
     atom    9 type  4   force =    -0.00078447   -0.00531746   -0.01392755
     atom   10 type  4   force =     0.00272353    0.00120836    0.01926946
     atom   11 type  4   force =    -0.00075507    0.00026701    0.01334919
     atom   12 type  4   force =    -0.00012924   -0.00140587   -0.01487287
     atom   13 type  4   force =    -0.03441465    0.00663167   -0.00752009
     atom   14 type  4   force =     0.01912828    0.01853877   -0.00588605
     atom   15 type  4   force =     0.01372400   -0.02330851   -0.00495549
     atom   16 type  4   force =    -0.01748689    0.02169806    0.00004466
     atom   17 type  4   force =    -0.01504571    0.00058950   -0.00358459
     atom   18 type  4   force =     0.01856386   -0.01530403   -0.00085171
     atom   19 type  4   force =     0.01490644    0.01037580    0.00205614
     atom   20 type  4   force =    -0.00870791   -0.01722539   -0.00436904
     atom   21 type  5   force =     0.01959655   -0.02457710   -0.04182789

     Total force =     0.109217     Total SCF correction =     0.000025


     entering subroutine stress ...

          total   stress  (Ry/bohr**3)                   (kbar)     P=   36.85
   0.00024214  -0.00001302  -0.00003118         35.62     -1.92     -4.59
  -0.00001302   0.00020255   0.00002706         -1.92     29.80      3.98
  -0.00003118   0.00002706   0.00030684         -4.59      3.98     45.14


     number of scf cycles    =   2
     number of bfgs steps    =   1

     energy   old            =   -1472.7553153502 Ry
     energy   new            =   -1472.8867335013 Ry

     CASE: energy  _new < energy  _old

     new trust radius        =       0.0700333651 bohr
     new conv_thr            =            1.0E-10 Ry


ATOMIC_POSITIONS (crystal)
Pb1     -0.000969503   0.519023753   0.280467270
Pb1      0.993838468   0.487697946   0.748235980
Pb1      0.495546687   0.012301845   0.249753899
Pb1      0.505898799   0.987388831   0.750769832
Co1     -0.000700131  -0.000913400  -0.000299680
Co1      0.499618417   0.500221324   0.500555186
Os1     -0.000345553   0.001694172   0.501753068
Os1      0.501977220   0.501828744   0.000118321
O1       0.933689328   0.989405369   0.254574151
O1       0.066823022   0.009682370   0.745651514
O1       0.566809883   0.490638369   0.245202827
O1       0.433625631   0.509152510   0.755029830
O1       0.235821521   0.279721550   0.033902690
O1       0.763318037   0.723289536   0.963593005
O1       0.262372583   0.776026067   0.463273533
O1       0.736689329   0.223108313   0.535458670
O1       0.278342140   0.766109488   0.036187784
O1       0.722336632   0.230873230   0.963302877
O1       0.220573767   0.268233714   0.462842007
O1       0.780173553   0.731482800   0.535920384
XMU       0.033560172   0.473033468   0.042706853



     Writing output data file PbCoOsO6.nmu1.rel.029480069.save
     NEW-OLD atomic charge density approx. for the potential

     Check: negative/imaginary core charge=   -0.000005    0.000000

     total cpu time spent up to now is     1553.6 secs

     Self-consistent Calculation

     iteration #  1     ecut=    80.00 Ry     beta=0.70
     Davidson diagonalization with overlap
     ethr =  1.00E-06,  avg # of iterations =  7.6

     total cpu time spent up to now is     1600.2 secs

     total energy              =   -1472.88888629 Ry
     Harris-Foulkes estimate   =   -1472.90109205 Ry
     estimated scf accuracy    <       0.01571412 Ry

     iteration #  2     ecut=    80.00 Ry     beta=0.70
     Davidson diagonalization with overlap
     ethr =  8.78E-06,  avg # of iterations =  4.6

     total cpu time spent up to now is     1631.3 secs

     total energy              =   -1472.76667256 Ry
     Harris-Foulkes estimate   =   -1473.04713319 Ry
     estimated scf accuracy    <       4.38402308 Ry

     iteration #  3     ecut=    80.00 Ry     beta=0.70
     Davidson diagonalization with overlap
     ethr =  8.78E-06,  avg # of iterations =  4.4

     total cpu time spent up to now is     1661.9 secs

     total energy              =   -1472.88886264 Ry
     Harris-Foulkes estimate   =   -1472.90524893 Ry
     estimated scf accuracy    <       0.20267394 Ry

     iteration #  4     ecut=    80.00 Ry     beta=0.70
     Davidson diagonalization with overlap
     ethr =  8.78E-06,  avg # of iterations =  2.1

     total cpu time spent up to now is     1683.0 secs

     total energy              =   -1472.89171089 Ry
     Harris-Foulkes estimate   =   -1472.90594672 Ry
     estimated scf accuracy    <       0.28504518 Ry

     iteration #  5     ecut=    80.00 Ry     beta=0.70
     Davidson diagonalization with overlap
     ethr =  8.78E-06,  avg # of iterations =  4.1

     total cpu time spent up to now is     1707.9 secs

     total energy              =   -1472.89595879 Ry
     Harris-Foulkes estimate   =   -1472.90200880 Ry
     estimated scf accuracy    <       0.06768647 Ry

     iteration #  6     ecut=    80.00 Ry     beta=0.70
     Davidson diagonalization with overlap
     ethr =  8.78E-06,  avg # of iterations =  1.4

     total cpu time spent up to now is     1728.5 secs

     total energy              =   -1472.89855109 Ry
     Harris-Foulkes estimate   =   -1472.90065464 Ry
     estimated scf accuracy    <       0.02158480 Ry

     iteration #  7     ecut=    80.00 Ry     beta=0.70
     Davidson diagonalization with overlap
     ethr =  8.78E-06,  avg # of iterations =  1.0

     total cpu time spent up to now is     1749.2 secs

     total energy              =   -1472.89952176 Ry
     Harris-Foulkes estimate   =   -1472.89963566 Ry
     estimated scf accuracy    <       0.00028504 Ry

     iteration #  8     ecut=    80.00 Ry     beta=0.70
     Davidson diagonalization with overlap
     ethr =  1.59E-07,  avg # of iterations =  2.3

     total cpu time spent up to now is     1774.5 secs

     total energy              =   -1472.89957108 Ry
     Harris-Foulkes estimate   =   -1472.89962667 Ry
     estimated scf accuracy    <       0.00018532 Ry

     iteration #  9     ecut=    80.00 Ry     beta=0.70
     Davidson diagonalization with overlap
     ethr =  1.04E-07,  avg # of iterations =  2.2

     total cpu time spent up to now is     1797.2 secs

     total energy              =   -1472.89959695 Ry
     Harris-Foulkes estimate   =   -1472.89960483 Ry
     estimated scf accuracy    <       0.00003248 Ry

     iteration # 10     ecut=    80.00 Ry     beta=0.70
     Davidson diagonalization with overlap
     ethr =  1.81E-08,  avg # of iterations =  2.0

     total cpu time spent up to now is     1820.3 secs

     total energy              =   -1472.89959913 Ry
     Harris-Foulkes estimate   =   -1472.89960320 Ry
     estimated scf accuracy    <       0.00001754 Ry

     iteration # 11     ecut=    80.00 Ry     beta=0.70
     Davidson diagonalization with overlap
     ethr =  9.80E-09,  avg # of iterations =  2.0

     total cpu time spent up to now is     1842.1 secs

     total energy              =   -1472.89960031 Ry
     Harris-Foulkes estimate   =   -1472.89960190 Ry
     estimated scf accuracy    <       0.00000415 Ry

     iteration # 12     ecut=    80.00 Ry     beta=0.70
     Davidson diagonalization with overlap
     ethr =  2.32E-09,  avg # of iterations =  2.1

     total cpu time spent up to now is     1866.3 secs

     total energy              =   -1472.89959918 Ry
     Harris-Foulkes estimate   =   -1472.89960346 Ry
     estimated scf accuracy    <       0.00006653 Ry

     iteration # 13     ecut=    80.00 Ry     beta=0.70
     Davidson diagonalization with overlap
     ethr =  2.32E-09,  avg # of iterations =  2.1

     total cpu time spent up to now is     1888.3 secs

     total energy              =   -1472.89960122 Ry
     Harris-Foulkes estimate   =   -1472.89960145 Ry
     estimated scf accuracy    <       0.00000075 Ry

     iteration # 14     ecut=    80.00 Ry     beta=0.70
     Davidson diagonalization with overlap
     ethr =  4.19E-10,  avg # of iterations =  3.1

     total cpu time spent up to now is     1914.3 secs

     total energy              =   -1472.89959895 Ry
     Harris-Foulkes estimate   =   -1472.89960390 Ry
     estimated scf accuracy    <       0.00012250 Ry

     iteration # 15     ecut=    80.00 Ry     beta=0.70
     Davidson diagonalization with overlap
     ethr =  4.19E-10,  avg # of iterations =  3.0

     total cpu time spent up to now is     1938.3 secs

     total energy              =   -1472.89960137 Ry
     Harris-Foulkes estimate   =   -1472.89960143 Ry
     estimated scf accuracy    <       0.00000029 Ry

     iteration # 16     ecut=    80.00 Ry     beta=0.70
     Davidson diagonalization with overlap
     ethr =  1.60E-10,  avg # of iterations =  2.0

     total cpu time spent up to now is     1960.0 secs

     total energy              =   -1472.89960126 Ry
     Harris-Foulkes estimate   =   -1472.89960157 Ry
     estimated scf accuracy    <       0.00000473 Ry

     iteration # 17     ecut=    80.00 Ry     beta=0.70
     Davidson diagonalization with overlap
     ethr =  1.60E-10,  avg # of iterations =  1.9

     total cpu time spent up to now is     1981.6 secs

     total energy              =   -1472.89960141 Ry
     Harris-Foulkes estimate   =   -1472.89960142 Ry
     estimated scf accuracy    <       0.00000001 Ry

     iteration # 18     ecut=    80.00 Ry     beta=0.70
     Davidson diagonalization with overlap
     ethr =  6.70E-12,  avg # of iterations =  2.1

     total cpu time spent up to now is     2006.4 secs

     total energy              =   -1472.89960141 Ry
     Harris-Foulkes estimate   =   -1472.89960142 Ry
     estimated scf accuracy    <          4.2E-09 Ry

     iteration # 19     ecut=    80.00 Ry     beta=0.70
     Davidson diagonalization with overlap
     ethr =  2.35E-12,  avg # of iterations =  2.0

     total cpu time spent up to now is     2029.0 secs

     total energy              =   -1472.89960142 Ry
     Harris-Foulkes estimate   =   -1472.89960142 Ry
     estimated scf accuracy    <          1.2E-09 Ry

     iteration # 20     ecut=    80.00 Ry     beta=0.70
     Davidson diagonalization with overlap
     ethr =  6.95E-13,  avg # of iterations =  1.6

     total cpu time spent up to now is     2050.2 secs

     total energy              =   -1472.89960142 Ry
     Harris-Foulkes estimate   =   -1472.89960142 Ry
     estimated scf accuracy    <          1.4E-10 Ry

     iteration # 21     ecut=    80.00 Ry     beta=0.70
     Davidson diagonalization with overlap
     ethr =  1.00E-13,  avg # of iterations =  2.0

     total cpu time spent up to now is     2074.9 secs

     total energy              =   -1472.89960142 Ry
     Harris-Foulkes estimate   =   -1472.89960142 Ry
     estimated scf accuracy    <          1.2E-10 Ry

     iteration # 22     ecut=    80.00 Ry     beta=0.70
     Davidson diagonalization with overlap
     ethr =  1.00E-13,  avg # of iterations =  1.0

     total cpu time spent up to now is     2095.7 secs

     End of self-consistent calculation

          k = 0.1667 0.1682 0.1195 ( 20076 PWs)   bands (ev):

   -75.3758 -75.3738 -34.7919 -34.7792 -34.7166 -34.7091 -34.6808 -34.6474
    -7.3340  -6.9696  -6.5484  -6.4396  -6.3225  -6.1744  -6.1504  -6.0620
    -6.0075  -5.9205  -5.8977  -5.8462  -4.3142  -4.2390  -4.2031  -4.1817
    -4.1776  -4.1543  -4.1335  -4.1298  -4.1138  -4.1020  -4.0810  -4.0667
    -4.0456  -4.0181  -4.0076  -3.9841  -3.9096  -3.8595  -3.8227  -3.7931
     2.9176   3.8245   4.0041   4.4923   4.8867   5.0732   5.2103   5.5279
     5.5963   5.7061   5.8456   5.9419   6.4052   6.5647   6.8373   7.0118
     7.0931   7.1894   7.3186   7.4246   7.7724   7.9436   8.2096   8.4769
     8.6905   8.8054   8.8333   9.0613   9.1716   9.2034   9.3893   9.4399
     9.5017   9.6975   9.7824   9.9097  10.0853  10.2548  10.4885  10.8760
    11.1906  11.3812  11.4424  11.5373  11.9424  11.9576  12.1161  12.1822
    12.4705  12.4999  12.6982  12.8264  12.9994  13.0281  13.1503  13.2622
    13.5707  15.8401  16.1167  16.5509  16.8492  16.9104  17.0843  17.3030
    17.4114  17.5646  17.6149  17.7146

          k = 0.1667 0.1682-0.3608 ( 20081 PWs)   bands (ev):

   -75.3758 -75.3738 -34.7919 -34.7792 -34.7166 -34.7091 -34.6808 -34.6474
    -7.1653  -7.1525  -6.4500  -6.4175  -6.3325  -6.2952  -6.1625  -6.0511
    -6.0299  -5.9159  -5.8819  -5.8465  -4.2971  -4.2348  -4.1970  -4.1763
    -4.1692  -4.1592  -4.1358  -4.1300  -4.1217  -4.0904  -4.0771  -4.0576
    -4.0340  -4.0042  -3.9809  -3.9263  -3.9150  -3.9064  -3.8639  -3.8530
     3.0914   3.5254   4.1299   4.2332   5.1783   5.2654   5.4956   5.6220
     5.6519   5.8297   5.8774   6.0088   6.2064   6.2871   6.8070   7.0049
     7.0643   7.1716   7.2202   7.3483   7.5972   7.8084   8.3013   8.3396
     8.6129   8.6913   8.8038   8.9221   9.0686   9.2289   9.4190   9.4801
     9.6150   9.7383   9.8391   9.8851  10.1014  10.1366  10.5508  10.6802
    11.3882  11.4563  11.7816  11.8117  11.8656  11.9013  12.1269  12.2950
    12.4024  12.5226  12.5960  12.8061  12.9269  13.0037  13.2013  13.2197
    13.9518  15.8493  16.4067  16.5351  16.5914  16.7040  16.9198  17.1450
    17.3331  17.4183  17.7209  17.7742

          k = 0.1667 0.1682-0.1206 ( 20064 PWs)   bands (ev):

   -75.3758 -75.3738 -34.7919 -34.7792 -34.7166 -34.7091 -34.6808 -34.6474
    -7.3317  -6.9757  -6.5580  -6.4387  -6.3055  -6.1807  -6.1415  -6.0559
    -5.9784  -5.9538  -5.9109  -5.8422  -4.3131  -4.2329  -4.2076  -4.1859
[...]
    15.9454  16.1747  16.4285  16.4906  16.6609  16.7387  16.9419  17.0523
    17.3081  17.3744  17.4629  17.7714

          k = 0.1667 0.1682-0.1206 ( 20064 PWs)   bands (ev):

   -75.1968 -75.0983 -34.6065 -34.5968 -34.5751 -34.4726 -34.4093 -34.3208
    -8.2589  -7.2106  -6.7064  -6.5517  -6.2960  -6.2432  -6.1466  -6.1086
    -6.0253  -5.9673  -5.8728  -5.8151  -4.2337  -4.1793  -4.1727  -4.1476
    -4.1413  -4.1122  -4.0923  -4.0823  -4.0743  -4.0545  -4.0393  -4.0180
    -3.9814  -3.9546  -3.9289  -3.9117  -3.8859  -3.8263  -3.7917  -3.7263
     3.0988   3.7765   3.9377   4.4475   4.6646   4.9131   5.1911   5.5945
     5.7525   5.8978   5.9091   5.9986   6.3174   6.5638   6.7525   6.8882
     7.0181   7.0975   7.1529   7.3178   7.7232   7.9090   8.0254   8.3072
     8.5851   8.7986   8.8461   8.9916   9.0881   9.2560   9.3368   9.3701
     9.5263   9.6635   9.8763   9.9710  10.1818  10.3532  10.4404  10.9663
    11.1287  11.4217  11.4877  11.5583  11.9482  12.0529  12.0786  12.3271
    12.4750  12.6499  12.7492  12.8019  12.9726  13.0802  13.2352  13.3489
    15.0472  16.1927  16.3372  16.6065  16.6590  16.9997  17.0618  17.2758
    17.4413  17.4988  17.6352  17.8179

          k = 0.1667-0.5047 0.1195 ( 20082 PWs)   bands (ev):

   -75.1968 -75.0983 -34.6065 -34.5968 -34.5751 -34.4726 -34.4093 -34.3209
    -8.2275  -6.9565  -6.8293  -6.5210  -6.4316  -6.2758  -6.1670  -6.0765
    -5.9802  -5.9370  -5.8263  -5.8133  -4.2532  -4.1788  -4.1731  -4.1632
    -4.1407  -4.1161  -4.0982  -4.0882  -4.0778  -4.0702  -4.0556  -4.0217
    -4.0023  -3.9924  -3.9538  -3.9229  -3.9047  -3.8688  -3.8437  -3.7788
     3.3382   3.5282   3.6785   4.0103   4.7492   5.0639   5.2360   5.6257
     5.8197   6.0886   6.1343   6.3145   6.3698   6.5865   6.9597   7.0146
     7.0826   7.2410   7.4014   7.6642   7.7750   7.8390   8.0767   8.2954
     8.3811   8.4933   8.5866   8.8069   9.0220   9.1256   9.2484   9.3532
     9.3940   9.5803   9.6206   9.8839  10.0672  10.3648  10.5092  10.8114
    11.4780  11.5026  11.8634  11.9311  11.9647  12.0380  12.3136  12.4533
    12.5923  12.7091  12.9149  13.0869  13.1538  13.2024  13.2328  13.2891
    15.3544  15.5476  15.7317  16.1052  16.4538  16.5572  16.7625  16.9015
    17.1923  17.2784  17.5229  17.6719

          k = 0.1667-0.5047-0.3608 ( 20066 PWs)   bands (ev):

   -75.1968 -75.0983 -34.6065 -34.5968 -34.5751 -34.4726 -34.4093 -34.3209
    -8.2245  -6.9167  -6.7137  -6.6083  -6.4288  -6.3329  -6.1904  -6.1421
    -5.9882  -5.9325  -5.8061  -5.7773  -4.2648  -4.1840  -4.1720  -4.1694
    -4.1451  -4.1226  -4.1077  -4.0927  -4.0812  -4.0685  -4.0497  -4.0275
    -4.0044  -3.9690  -3.9443  -3.9102  -3.8981  -3.8555  -3.8301  -3.8092
     3.3205   3.6091   3.7354   4.0151   4.6510   5.3075   5.6013   5.6819
     5.8081   6.1254   6.1788   6.3439   6.3979   6.5137   6.6635   6.8693
     6.9510   7.2187   7.2783   7.4645   7.6079   7.6824   7.9709   8.0837
     8.2232   8.5537   8.6677   9.0663   9.1142   9.2612   9.3386   9.3815
     9.5106   9.5911   9.7623   9.7886  10.0013  10.1896  10.3913  10.6793
    11.7529  11.8250  11.8810  11.9055  11.9535  12.0350  12.3510  12.5570
    12.6032  12.6613  12.8839  13.0602  13.1229  13.2727  13.3544  13.4290
    15.4769  15.5721  15.7656  15.8723  16.3239  16.4903  16.7514  16.8225
    16.9644  17.1992  17.5768  17.6355

          k = 0.1667-0.5047-0.1206 ( 20072 PWs)   bands (ev):

   -75.1968 -75.0983 -34.6065 -34.5968 -34.5751 -34.4725 -34.4093 -34.3209
    -8.2274  -6.9578  -6.8333  -6.5339  -6.4087  -6.2771  -6.1559  -6.1002
    -5.9458  -5.9339  -5.8613  -5.8052  -4.2522  -4.1821  -4.1750  -4.1566
    -4.1496  -4.1220  -4.1035  -4.0868  -4.0798  -4.0640  -4.0505  -4.0242
    -4.0162  -3.9866  -3.9418  -3.9142  -3.8995  -3.8757  -3.8496  -3.7770
     3.3461   3.5482   3.6643   4.0120   4.7394   5.0803   5.2546   5.5829
     5.7880   6.0522   6.1514   6.2969   6.4501   6.5673   6.8216   7.0905
     7.1308   7.2610   7.4738   7.5978   7.6871   7.9331   8.0623   8.2292
     8.3959   8.4587   8.7101   8.9288   9.0204   9.1370   9.2477   9.3006
     9.3612   9.4729   9.7113   9.7770  10.1617  10.2570  10.6102  10.7264
    11.4795  11.5548  11.8689  11.9096  11.9534  12.0381  12.3330  12.5125
    12.5832  12.6381  12.9640  13.0513  13.0880  13.1972  13.2646  13.3038
    15.4568  15.5454  15.8575  16.2580  16.3220  16.5577  16.6626  16.8941
    17.0004  17.1920  17.4665  17.6714

          k =-0.5000 0.1682 0.1217 ( 20080 PWs)   bands (ev):

   -75.1968 -75.0983 -34.6065 -34.5968 -34.5751 -34.4726 -34.4093 -34.3209
    -8.2021  -7.0155  -6.8322  -6.5501  -6.3861  -6.2224  -6.1638  -6.1359
    -5.9973  -5.9371  -5.8666  -5.7915  -4.2440  -4.1810  -4.1703  -4.1576
    -4.1465  -4.1221  -4.1065  -4.0859  -4.0798  -4.0708  -4.0411  -4.0275
    -4.0069  -3.9523  -3.9443  -3.9224  -3.9053  -3.8607  -3.8520  -3.7430
     3.4149   3.5891   3.7234   4.0044   4.7180   5.1044   5.2475   5.6287
     5.6937   5.9554   6.1417   6.2069   6.3388   6.5197   6.8492   6.9706
     7.2076   7.2781   7.4220   7.5664   7.7940   7.8841   7.9526   8.2230
     8.3825   8.6707   8.7755   8.9112   9.0406   9.1225   9.2573   9.3324
     9.4299   9.4979   9.7643   9.9282  10.0287  10.2752  10.4896  10.6777
    11.4862  11.5700  11.8692  11.9194  11.9706  12.0427  12.3699  12.4988
    12.5871  12.6653  12.6776  12.9814  13.1609  13.2322  13.2703  13.2985
    15.4654  15.6553  16.0163  16.1638  16.3407  16.4897  16.7134  16.9524
    17.0312  17.1837  17.5392  17.7140

          k =-0.5000 0.1682-0.3586 ( 20076 PWs)   bands (ev):

   -75.1968 -75.0983 -34.6065 -34.5968 -34.5751 -34.4726 -34.4093 -34.3209
    -8.1988  -6.9774  -6.7688  -6.5665  -6.4143  -6.2809  -6.1825  -6.1301
    -6.0151  -5.9976  -5.8322  -5.7573  -4.2601  -4.1824  -4.1720  -4.1661
    -4.1407  -4.1231  -4.1106  -4.0899  -4.0836  -4.0692  -4.0430  -4.0251
    -3.9950  -3.9564  -3.9407  -3.9187  -3.8908  -3.8608  -3.8306  -3.7620
     3.4407   3.5800   3.8647   3.9525   4.7268   5.4081   5.5018   5.5322
     5.7750   6.0023   6.1081   6.2601   6.3188   6.4509   6.6784   6.9080
     7.0097   7.1296   7.3136   7.4411   7.5288   7.7916   7.9641   8.1245
     8.3003   8.4781   8.8822   9.0533   9.1481   9.2619   9.3442   9.4466
     9.5161   9.5466   9.7601   9.8577   9.9694  10.2403  10.3075  10.6684
    11.7929  11.8349  11.8536  11.8932  11.9391  12.0143  12.3496  12.4287
    12.5486  12.7000  12.8732  13.0115  13.1634  13.2328  13.3844  13.4159
    15.5310  15.6118  15.8528  16.0575  16.2202  16.5487  16.6801  16.7638
    17.1067  17.1274  17.4765  17.6105

          k =-0.5000-0.5047 0.1217 ( 20108 PWs)   bands (ev):

   -75.1968 -75.0983 -34.6065 -34.5968 -34.5751 -34.4726 -34.4093 -34.3209
    -8.1889  -6.9289  -6.7672  -6.5585  -6.4764  -6.2395  -6.1443  -6.0710
    -5.9559  -5.8945  -5.8354  -5.8269  -4.2671  -4.1949  -4.1814  -4.1663
    -4.1478  -4.1285  -4.1222  -4.0950  -4.0768  -4.0696  -4.0592  -4.0482
    -4.0361  -4.0045  -3.9864  -3.9465  -3.9295  -3.9063  -3.8555  -3.7594
     3.1472   3.3833   3.6769   4.0908   4.7059   4.7714   4.9376   5.6053
     5.7555   5.8473   6.0557   6.6813   6.7268   6.9398   7.1018   7.3476
     7.4237   7.5714   7.7636   7.8381   7.9355   7.9775   8.1034   8.2391
     8.2926   8.4336   8.4938   8.6492   8.8174   9.0055   9.2411   9.3339
     9.4839   9.4946   9.7163   9.8252   9.9838  10.2711  11.1186  11.1485
    11.1970  11.2340  11.8339  12.0021  12.0566  12.1061  12.1532  12.3845
    12.4542  12.7763  12.9118  13.0173  13.0870  13.2006  13.4320  13.4818
    14.3867  14.7904  15.9042  16.1383  16.2149  16.2995  16.5006  16.7563
    17.1432  17.2004  17.3792  17.4994

          k =-0.5000-0.5047-0.3586 ( 20112 PWs)   bands (ev):

   -75.1968 -75.0983 -34.6065 -34.5968 -34.5751 -34.4726 -34.4093 -34.3209
    -8.1868  -6.8907  -6.6824  -6.6035  -6.4657  -6.2419  -6.1829  -6.1711
    -5.9140  -5.8946  -5.8715  -5.8137  -4.2761  -4.1955  -4.1815  -4.1690
    -4.1543  -4.1272  -4.1157  -4.0912  -4.0881  -4.0704  -4.0551  -4.0364
    -4.0118  -3.9954  -3.9794  -3.9394  -3.9193  -3.8834  -3.8715  -3.8141
     3.3327   3.4762   3.6438   3.8547   4.6703   4.9080   5.1470   5.6448
     5.7279   5.9423   6.0315   6.6854   6.7389   7.0080   7.0838   7.1546
     7.4228   7.4530   7.6122   7.6776   7.8176   7.9026   8.1281   8.3375
     8.5206   8.5438   8.6029   8.7500   8.7669   8.8027   8.9015   9.0224
     9.4845   9.5421   9.6698   9.7293  10.2197  10.5356  10.5803  10.6653
    11.7324  11.8240  11.8406  11.8491  11.9294  12.0528  12.2752  12.4215
    12.5968  12.7264  12.9946  13.0882  13.2041  13.2200  13.2982  13.4434
    15.2011  15.3684  15.4430  15.7754  16.4082  16.4792  16.5886  16.8215
    17.0224  17.2127  17.3096  17.3736

          k =-0.1667 0.1682-0.1195 ( 20076 PWs)   bands (ev):

   -75.1968 -75.0983 -34.6065 -34.5968 -34.5751 -34.4726 -34.4093 -34.3208
    -8.2654  -7.1794  -6.7163  -6.5310  -6.3732  -6.2412  -6.1439  -6.0870
    -5.9963  -5.9666  -5.9009  -5.7998  -4.2313  -4.1822  -4.1745  -4.1540
    -4.1470  -4.1086  -4.0943  -4.0812  -4.0729  -4.0574  -4.0364  -4.0212
    -3.9853  -3.9604  -3.9370  -3.9111  -3.8712  -3.8411  -3.7948  -3.6963
     3.1500   3.7056   3.8883   4.4462   4.7831   5.0180   5.2047   5.6207
     5.6613   5.7660   5.8256   6.0103   6.2766   6.5932   6.8784   6.9423
     7.0003   7.0263   7.2404   7.4281   7.6908   7.8173   8.0628   8.2720
     8.6848   8.7796   8.9181   8.9567   9.0442   9.2176   9.2979   9.4163
     9.4734   9.6749   9.8283   9.9437  10.1337  10.1788  10.4207  10.9459
    11.1956  11.4237  11.5795  11.6429  11.9574  12.0261  12.1044  12.2962
    12.5765  12.6211  12.6880  12.8731  12.9736  13.0863  13.1985  13.3566
    15.0136  15.7975  16.4467  16.6592  16.8542  17.0748  17.1856  17.2713
    17.3994  17.4472  17.5519  17.9581

          k =-0.1667 0.1682 0.3608 ( 20081 PWs)   bands (ev):

   -75.1968 -75.0983 -34.6065 -34.5968 -34.5751 -34.4726 -34.4092 -34.3208
    -8.2581  -7.1296  -6.7585  -6.4552  -6.3922  -6.3289  -6.1475  -6.0845
    -6.0442  -5.9463  -5.9021  -5.7774  -4.2451  -4.1826  -4.1717  -4.1515
    -4.1411  -4.1055  -4.1023  -4.0884  -4.0769  -4.0624  -4.0367  -3.9982
    -3.9824  -3.9297  -3.9198  -3.9023  -3.8718  -3.8339  -3.7955  -3.7571
     3.3514   3.4514   4.0904   4.1538   4.9039   5.2602   5.4319   5.6499
     5.7404   5.8277   5.9243   5.9763   6.2854   6.3788   6.6568   6.9639
     7.0425   7.1575   7.2414   7.2832   7.5646   7.7513   7.9308   8.3581
     8.5162   8.5734   8.7025   8.8833   8.9803   9.0737   9.2789   9.4457
     9.6290   9.7604   9.8257   9.9543  10.0267  10.3099  10.5019  10.6806
    11.4243  11.6415  11.8133  11.8600  11.8955  11.9371  12.1321  12.3072
    12.4692  12.5834  12.6361  12.8403  12.9984  13.0722  13.3356  13.3746
    16.0231  16.1632  16.3573  16.5107  16.5932  16.7471  16.8768  17.1307
    17.1807  17.3401  17.6750  17.9914

          k =-0.1667 0.1682 0.1206 ( 20064 PWs)   bands (ev):

   -75.1968 -75.0983 -34.6065 -34.5968 -34.5751 -34.4726 -34.4093 -34.3208
    -8.2651  -7.1842  -6.7053  -6.5327  -6.3763  -6.2384  -6.1367  -6.0782
    -6.0156  -5.9822  -5.8993  -5.7879  -4.2313  -4.1816  -4.1754  -4.1508
    -4.1406  -4.0977  -4.0887  -4.0841  -4.0749  -4.0648  -4.0437  -4.0170
    -3.9949  -3.9555  -3.9419  -3.9128  -3.8753  -3.8378  -3.7988  -3.6894
     3.1301   3.7566   3.9895   4.3345   4.6541   4.9892   5.1728   5.5527
     5.6890   5.7860   5.8376   6.1123   6.5220   6.6462   6.7678   6.9505
     7.0205   7.0954   7.1861   7.4965   7.6848   7.8692   8.0660   8.1478
     8.5599   8.6379   8.8285   8.9451   9.0755   9.1784   9.3722   9.4177
     9.4667   9.5102   9.8557   9.9964  10.1924  10.2948  10.5070  11.0134
    11.1741  11.4274  11.5524  11.6408  11.9368  12.0118  12.0967  12.2847
    12.5186  12.5872  12.7317  12.9151  13.0351  13.0739  13.2290  13.3033
    15.0235  15.8819  16.3375  16.5438  16.8281  17.0977  17.3082  17.3421
    17.4529  17.5329  17.6993  17.7786

          k = 0.5000 0.1682-0.1217 ( 20080 PWs)   bands (ev):

   -75.1968 -75.0983 -34.6065 -34.5968 -34.5751 -34.4726 -34.4093 -34.3209
    -8.2022  -7.0193  -6.8255  -6.5604  -6.3714  -6.2369  -6.1552  -6.1266
    -5.9818  -5.9662  -5.8760  -5.7796  -4.2439  -4.1803  -4.1706  -4.1609
    -4.1362  -4.1172  -4.0987  -4.0920  -4.0763  -4.0674  -4.0530  -4.0252
    -4.0042  -3.9684  -3.9386  -3.9273  -3.9031  -3.8652  -3.8469  -3.7450
     3.4371   3.5654   3.7458   3.9631   4.7326   5.0961   5.2535   5.6561
     5.7346   5.9590   6.1959   6.2184   6.3415   6.4476   6.8355   7.0053
     7.0715   7.2801   7.4054   7.5914   7.7496   7.9049   8.0261   8.2062
     8.3636   8.5921   8.7224   8.8909   9.0491   9.1943   9.2266   9.4059
     9.4359   9.5095   9.6581   9.9983  10.0869  10.3579  10.5742  10.7167
    11.4110  11.4844  11.8593  11.9227  11.9559  12.0449  12.2873  12.4855
    12.6383  12.6610  12.8436  12.9201  13.1139  13.1978  13.2511  13.3530
    15.3684  15.6334  15.9901  16.0961  16.2664  16.6030  16.8529  16.9176
    17.1685  17.4465  17.4645  17.5753

     the Fermi energy is    12.6619 ev

!    total energy              =   -1473.03268752 Ry
     Harris-Foulkes estimate   =   -1473.03268752 Ry
     estimated scf accuracy    <          4.8E-14 Ry

     The total energy is the sum of the following terms:

     one-electron contribution =    -287.09468258 Ry
     hartree contribution      =     281.06738073 Ry
     xc contribution           =    -356.91666069 Ry
     ewald contribution        =   -1110.04796538 Ry
     smearing contrib. (-TS)   =      -0.04075959 Ry

     convergence has been achieved in  18 iterations

     Forces acting on atoms (Ry/au):

     atom    1 type  1   force =     0.00002320    0.00000213   -0.00001239
     atom    2 type  1   force =     0.00002010   -0.00000546   -0.00000823
     atom    3 type  1   force =     0.00000115   -0.00003092    0.00000802
     atom    4 type  1   force =    -0.00003722    0.00000426   -0.00002194
     atom    5 type  2   force =    -0.00000841   -0.00002338   -0.00001354
     atom    6 type  2   force =    -0.00001931   -0.00001951   -0.00001041
     atom    7 type  3   force =     0.00003813   -0.00000222    0.00001023
     atom    8 type  3   force =     0.00005775    0.00003824   -0.00003793
     atom    9 type  4   force =    -0.00002919    0.00004842    0.00001568
     atom   10 type  4   force =    -0.00003455    0.00002584    0.00000145
     atom   11 type  4   force =    -0.00003290    0.00001083    0.00002651
     atom   12 type  4   force =    -0.00002536   -0.00000818    0.00001393
     atom   13 type  4   force =     0.00005389   -0.00004498   -0.00002111
     atom   14 type  4   force =    -0.00003616   -0.00003595   -0.00002819
     atom   15 type  4   force =     0.00002397    0.00000390   -0.00002197
     atom   16 type  4   force =    -0.00003165    0.00002769    0.00003850
     atom   17 type  4   force =    -0.00000428   -0.00000486   -0.00001928
     atom   18 type  4   force =     0.00004602   -0.00001216   -0.00000170
     atom   19 type  4   force =     0.00005110   -0.00001885    0.00007626
     atom   20 type  4   force =    -0.00000188    0.00000421    0.00000730
     atom   21 type  5   force =    -0.00005440    0.00004094   -0.00000117

     Total force =     0.000226     Total SCF correction =     0.000001


     entering subroutine stress ...

          total   stress  (Ry/bohr**3)                   (kbar)     P=   37.26
   0.00013952   0.00000353  -0.00002637         20.52      0.52     -3.88
   0.00000353   0.00026645   0.00001276          0.52     39.20      1.88
  -0.00002637   0.00001276   0.00035385         -3.88      1.88     52.05


     bfgs converged in 107 scf cycles and 106 bfgs steps
     (criteria: energy <  1.0E-05, force <  1.0E-04)

     End of BFGS Geometry Optimization

     Final energy   =   -1473.0326875177 Ry
Begin final coordinates

ATOMIC_POSITIONS (crystal)
Pb1     -0.014001539   0.524241668   0.279322851
Pb1      0.997228626   0.518388623   0.718536526
Pb1      0.500262694  -0.001503107   0.253880134
Pb1      0.482385516   1.013440744   0.757030755
Co1     -0.014160638  -0.012005051   0.002105184
Co1      0.494883054   0.504582005   0.505651364
Os1     -0.005560090   0.012784651   0.504783430
Os1      0.516087409   0.508950697   0.001260374
O1       0.947418641   0.965829789   0.256675704
O1       0.040755663   0.033673691   0.752364909
O1       0.541452153   0.539108820   0.248012724
O1       0.457991029   0.467816743   0.758677618
O1       0.206610768   0.293533653   0.032815414
O1       0.814849903   0.682109880   0.979200670
O1       0.219983148   0.738213217   0.500275914
O1       0.772190682   0.281710822   0.504899057
O1       0.309420627   0.796898803   0.003437775
O1       0.692274097   0.196653735   1.004447856
O1       0.256257059   0.240768392   0.464033916
O1       0.735672378   0.772810102   0.545497086
XMU       0.076998819   0.401992124  -0.003909259
End final coordinates



     Writing output data file PbCoOsO6.nmu1.rel.029480069.save
 
     init_run     :     20.99s CPU     22.10s WALL (       1 calls)
     electrons    :  48883.16s CPU  52282.40s WALL (     107 calls)
     update_pot   :   1242.48s CPU   1615.84s WALL (     106 calls)
     forces       :   1299.92s CPU   1321.08s WALL (     107 calls)
     stress       :   3218.25s CPU   3274.65s WALL (     107 calls)

     Called by init_run:
     wfcinit      :      6.69s CPU      7.15s WALL (       1 calls)
     potinit      :      4.41s CPU      4.68s WALL (       1 calls)

     Called by electrons:
     c_bands      :  37694.67s CPU  39616.95s WALL (    2249 calls)
     sum_band     :   8482.10s CPU   9220.82s WALL (    2249 calls)
     v_of_rho     :    287.53s CPU    329.18s WALL (    2334 calls)
     newd         :   2452.04s CPU   2765.94s WALL (    2334 calls)
     mix_rho      :     47.82s CPU     57.75s WALL (    2249 calls)

     Called by c_bands:
     init_us_2    :    249.64s CPU    271.70s WALL (   65982 calls)
     cegterg      :  36546.80s CPU  38416.45s WALL (   31486 calls)

     Called by sum_band:
     sum_band:bec :     18.90s CPU     20.41s WALL (   31486 calls)
     addusdens    :   3147.95s CPU   3578.55s WALL (    2249 calls)

     Called by *egterg:
     h_psi        :  20282.25s CPU  21524.13s WALL (   95614 calls)
     s_psi        :   2845.87s CPU   2876.55s WALL (   95614 calls)
     g_psi        :     83.42s CPU     83.56s WALL (   64114 calls)
     cdiaghg      :   4686.92s CPU   4692.04s WALL (   93808 calls)

     Called by h_psi:
     h_psi:pot    :  20132.24s CPU  21372.82s WALL (   95614 calls)
     h_psi:calbec :   3028.89s CPU   3030.09s WALL (   95614 calls)
     vloc_psi     :  14231.74s CPU  15440.62s WALL (   95614 calls)
     add_vuspsi   :   2870.71s CPU   2901.11s WALL (   95614 calls)

     General routines
     calbec       :   4631.68s CPU   4633.03s WALL (  134590 calls)
     fft          :    353.01s CPU    389.83s WALL (   39785 calls)
     ffts         :      5.47s CPU      6.92s WALL (    4583 calls)
     fftw         :  13147.16s CPU  14632.35s WALL (18918060 calls)
     interpolate  :     38.26s CPU     51.05s WALL (    4583 calls)
 
     Parallel routines
     fft_scatter  :   5455.80s CPU   5791.85s WALL (18962428 calls)
 
     PWSCF        :    15h13m CPU       17h 4m WALL

 
   This run was terminated on:  23:31:12  19Mar2018            

=------------------------------------------------------------------------------=
   JOB DONE.
=------------------------------------------------------------------------------=
