
     Program PWSCF v.6.0 (svn rev. 13079) starts on 17Mar2018 at  7:40:35 

     This program is part of the open-source Quantum ESPRESSO suite
     for quantum simulation of materials; please cite
         "P. Giannozzi et al., J. Phys.:Condens. Matter 21 395502 (2009);
          URL http://www.quantum-espresso.org", 
     in publications or presentations arising from this work. More details at
     http://www.quantum-espresso.org/quote

     Parallel version (MPI), running on    16 processors
     R & G space division:  proc/nbgrp/npool/nimage =      16
     Waiting for input...
     Reading input from standard input

     Current dimensions of program PWSCF are:
     Max number of different atomic species (ntypx) = 10
     Max number of k-points (npk) =  40000
     Max angular momentum in pseudopotentials (lmaxx) =  3
               file Pb.pbe-dn-rrkjus_psl.1.0.0.UPF: wavefunction(s)  6S 5D renormalized
               file Co.pbe-nd-rrkjus.UPF: wavefunction(s)  4S 3D renormalized
               file O.pbe-rrkjus.UPF: wavefunction(s)  2S renormalized

     Subspace diagonalization in iterative solution of the eigenvalue problem:
     a serial algorithm will be used

 
     Parallelization info
     --------------------
     sticks:   dense  smooth     PW     G-vecs:    dense   smooth      PW
     Min         447     178     49                39678    10034    1462
     Max         448     179     50                39684    10037    1466
     Sum        7153    2861    793               634889   160567   23415
 


     bravais-lattice index     =          -12
     lattice parameter (alat)  =      10.6515  a.u.
     unit-cell volume          =    1661.5166 (a.u.)^3
     number of atoms/cell      =           21
     number of atomic types    =            5
     number of electrons       =       179.00
     number of Kohn-Sham states=          108
     kinetic-energy cutoff     =      80.0000  Ry
     charge density cutoff     =     800.0000  Ry
     convergence threshold     =      1.0E-10
     mixing beta               =       0.7000
     number of iterations used =            8  plain     mixing
     Exchange-correlation      =  SLA  PW   PBX  PBC ( 1  4  3  4 0 0)
     nstep                     =          500


     celldm(1)=  10.651460  celldm(2)=   0.990615  celldm(3)=   1.387953
     celldm(4)=   0.000000  celldm(5)=   0.003229  celldm(6)=   0.000000

     crystal axes: (cart. coord. in units of alat)
               a(1) = (   1.000000   0.000000   0.000000 )  
               a(2) = (   0.000000   0.990615   0.000000 )  
               a(3) = (   0.004481   0.000000   1.387946 )  

     reciprocal axes: (cart. coord. in units 2 pi/alat)
               b(1) = (  1.000000  0.000000 -0.003229 )  
               b(2) = (  0.000000  1.009474  0.000000 )  
               b(3) = (  0.000000  0.000000  0.720489 )  


     PseudoPot. # 1 for Pb read from file:
     /home/phys-musr/mert2601/pseudo/Pb.pbe-dn-rrkjus_psl.1.0.0.UPF
     MD5 check sum: 2b6b9e196840e0193c308501b9d7f8a8
     Pseudo is Ultrasoft + core correction, Zval = 14.0
     Generated using "atomic" code by A. Dal Corso  v.5.0.2 svn rev. 9656
     Using radial grid of 1281 points,  6 beta functions with: 
                l(1) =   0
                l(2) =   0
                l(3) =   1
                l(4) =   1
                l(5) =   2
                l(6) =   2
     Q(r) pseudized with 0 coefficients 


     PseudoPot. # 2 for Co read from file:
     /home/phys-musr/mert2601/pseudo/Co.pbe-nd-rrkjus.UPF
     MD5 check sum: 3e47a84addf5e975e0edeaeee2a73f59
     Pseudo is Ultrasoft + core correction, Zval =  9.0
     Generated by new atomic code, or converted to UPF format
     Using radial grid of  961 points,  6 beta functions with: 
                l(1) =   0
                l(2) =   0
                l(3) =   1
                l(4) =   1
                l(5) =   2
                l(6) =   2
     Q(r) pseudized with 0 coefficients 


     PseudoPot. # 3 for Os read from file:
     /home/phys-musr/mert2601/pseudo/Os.pbe-spn-rrkjus_psl.1.0.0.UPF
     MD5 check sum: 1900630a666269e0fb52cec33d227dc5
     Pseudo is Ultrasoft + core correction, Zval = 16.0
     Generated using "atomic" code by A. Dal Corso  v.5.0.2 svn rev. 9656
     Using radial grid of 1275 points,  6 beta functions with: 
                l(1) =   0
                l(2) =   0
                l(3) =   1
                l(4) =   1
                l(5) =   2
                l(6) =   2
     Q(r) pseudized with 0 coefficients 


     PseudoPot. # 4 for O  read from file:
     /home/phys-musr/mert2601/pseudo/O.pbe-rrkjus.UPF
     MD5 check sum: 390ba29e75625707450f3bd3f0eb6be9
     Pseudo is Ultrasoft, Zval =  6.0
     Generated by new atomic code, or converted to UPF format
     Using radial grid of 1269 points,  4 beta functions with: 
                l(1) =   0
                l(2) =   0
                l(3) =   1
                l(4) =   1
     Q(r) pseudized with 0 coefficients 


     PseudoPot. # 5 for H  read from file:
     /home/phys-musr/mert2601/pseudo/H.pbe-tm-dc.UPF
     MD5 check sum: c7e992f3be35a5ba2152290168345934
     Pseudo is Norm-conserving, Zval =  1.0
     Generated by new atomic code, or converted to UPF format
     Using radial grid of  929 points,  0 beta functions with: 

     atomic species   valence    mass     pseudopotential
        Pb1           14.00   207.20000     Pb( 1.00)
        Co1            9.00    58.93000     Co( 1.00)
        Os1           16.00   190.23000     Os( 1.00)
        O1             6.00    15.99900     O ( 1.00)
        XMU             1.00     0.11343     H ( 1.00)

     No symmetry found



   Cartesian axes

     site n.     atom                  positions (alat units)
         1           Pb1 tau(   1) = (   0.0069235   0.5069966   0.3479580  )
         2           Pb1 tau(   2) = (   0.9975580   0.4836181   1.0399876  )
         3           Pb1 tau(   3) = (   0.4953172   0.0116893   0.3460148  )
         4           Pb1 tau(   4) = (   0.5091643   0.9789255   1.0419308  )
         5           Co1 tau(   5) = (   0.0000000   0.0000000   0.0000000  )
         6           Co1 tau(   6) = (   0.5022407   0.4953074   0.6939728  )
         7           Os1 tau(   7) = (   0.0022407   0.0000000   0.6939728  )
         8           Os1 tau(   8) = (   0.5000000   0.4953074   0.0000000  )
         9           O1  tau(   9) = (   0.9350567   0.9813030   0.3582288  )
        10           O1  tau(  10) = (   0.0694248   0.0093118   1.0297168  )
        11           O1  tau(  11) = (   0.5671841   0.4859956   0.3357440  )
        12           O1  tau(  12) = (   0.4372974   0.5046192   1.0522016  )
        13           O1  tau(  13) = (   0.2413586   0.2795515   0.0491333  )
        14           O1  tau(  14) = (   0.7631228   0.7110633   1.3388123  )
        15           O1  tau(  15) = (   0.2608821   0.7748589   0.6448395  )
        16           O1  tau(  16) = (   0.7435994   0.2157559   0.7431061  )
        17           O1  tau(  17) = (   0.2824636   0.7574240   0.0506600  )
        18           O1  tau(  18) = (   0.7220179   0.2331907   1.3372856  )
        19           O1  tau(  19) = (   0.2197772   0.2621167   0.6433128  )
        20           O1  tau(  20) = (   0.7847043   0.7284981   0.7446328  )
        21           XMU  tau(  21) = (   0.0027574   0.4645983   0.2345628  )

     number of k points=    14  gaussian smearing, width (Ry)=  0.0200
                       cart. coord. in units 2pi/alat
        k(    1) = (   0.1666667   0.1682457   0.1195434), wk =   0.1481481
        k(    2) = (   0.1666667   0.1682457  -0.3607828), wk =   0.1481481
        k(    3) = (   0.1666667   0.1682457  -0.1206197), wk =   0.1481481
        k(    4) = (   0.1666667  -0.5047371   0.1195434), wk =   0.1481481
        k(    5) = (   0.1666667  -0.5047371  -0.3607828), wk =   0.1481481
        k(    6) = (   0.1666667  -0.5047371  -0.1206197), wk =   0.1481481
        k(    7) = (  -0.5000000   0.1682457   0.1216960), wk =   0.1481481
        k(    8) = (  -0.5000000   0.1682457  -0.3586302), wk =   0.1481481
        k(    9) = (  -0.5000000  -0.5047371   0.1216960), wk =   0.1481481
        k(   10) = (  -0.5000000  -0.5047371  -0.3586302), wk =   0.0740741
        k(   11) = (  -0.1666667   0.1682457  -0.1195434), wk =   0.1481481
        k(   12) = (  -0.1666667   0.1682457   0.3607828), wk =   0.1481481
        k(   13) = (  -0.1666667   0.1682457   0.1206197), wk =   0.1481481
        k(   14) = (   0.5000000   0.1682457  -0.1216960), wk =   0.1481481

     Dense  grid:   634889 G-vectors     FFT dimensions: (  96,  96, 135)

     Smooth grid:   160567 G-vectors     FFT dimensions: (  64,  64,  90)

     Estimated max dynamical RAM per process >      82.00Mb

     Estimated total allocated dynamical RAM >    1311.97Mb

     Check: negative/imaginary core charge=   -0.000005    0.000000

     Initial potential from superposition of free atoms

     starting charge  178.08905, renormalised to  179.00000
     Starting wfc are  117 randomized atomic wfcs

     total cpu time spent up to now is       61.1 secs

     Self-consistent Calculation

     iteration #  1     ecut=    80.00 Ry     beta=0.70
     Davidson diagonalization with overlap
     ethr =  1.00E-02,  avg # of iterations =  3.0

     total cpu time spent up to now is       74.5 secs

     total energy              =   -1429.16070809 Ry
     Harris-Foulkes estimate   =   -1472.53725124 Ry
     estimated scf accuracy    <      50.32078111 Ry

     iteration #  2     ecut=    80.00 Ry     beta=0.70
     Davidson diagonalization with overlap
     ethr =  1.00E-02,  avg # of iterations =  6.0

     total cpu time spent up to now is      100.8 secs

     total energy              =   -1413.77196761 Ry
     Harris-Foulkes estimate   =   -1574.00927440 Ry
     estimated scf accuracy    <     602.52844742 Ry

     iteration #  3     ecut=    80.00 Ry     beta=0.70
     Davidson diagonalization with overlap
     ethr =  1.00E-02,  avg # of iterations =  7.2

     total cpu time spent up to now is      125.3 secs

     total energy              =   -1459.92930258 Ry
     Harris-Foulkes estimate   =   -1492.30768185 Ry
     estimated scf accuracy    <     174.57111965 Ry

     iteration #  4     ecut=    80.00 Ry     beta=0.70
     Davidson diagonalization with overlap
     ethr =  1.00E-02,  avg # of iterations =  4.1

     total cpu time spent up to now is      141.9 secs

     total energy              =   -1470.39459125 Ry
     Harris-Foulkes estimate   =   -1474.22244212 Ry
     estimated scf accuracy    <      32.56784940 Ry

     iteration #  5     ecut=    80.00 Ry     beta=0.70
     Davidson diagonalization with overlap
     ethr =  1.00E-02,  avg # of iterations =  1.0

     total cpu time spent up to now is      152.3 secs

     total energy              =   -1469.97674597 Ry
     Harris-Foulkes estimate   =   -1472.21426680 Ry
     estimated scf accuracy    <      16.94853857 Ry

     iteration #  6     ecut=    80.00 Ry     beta=0.70
     Davidson diagonalization with overlap
     ethr =  9.47E-03,  avg # of iterations =  1.0

     total cpu time spent up to now is      162.7 secs

     total energy              =   -1469.41350628 Ry
     Harris-Foulkes estimate   =   -1470.48514950 Ry
     estimated scf accuracy    <      11.25631087 Ry

     iteration #  7     ecut=    80.00 Ry     beta=0.70
     Davidson diagonalization with overlap
     ethr =  6.29E-03,  avg # of iterations =  1.1

     total cpu time spent up to now is      173.2 secs

     total energy              =   -1468.67512430 Ry
     Harris-Foulkes estimate   =   -1470.26601095 Ry
     estimated scf accuracy    <      12.38396885 Ry

     iteration #  8     ecut=    80.00 Ry     beta=0.70
     Davidson diagonalization with overlap
     ethr =  6.29E-03,  avg # of iterations =  1.0

     total cpu time spent up to now is      183.6 secs

     total energy              =   -1468.52851561 Ry
     Harris-Foulkes estimate   =   -1469.31661926 Ry
     estimated scf accuracy    <       6.42745421 Ry

     iteration #  9     ecut=    80.00 Ry     beta=0.70
     Davidson diagonalization with overlap
     ethr =  3.59E-03,  avg # of iterations =  1.0

     total cpu time spent up to now is      194.0 secs

     total energy              =   -1468.47840074 Ry
     Harris-Foulkes estimate   =   -1469.33032772 Ry
     estimated scf accuracy    <       7.43636766 Ry

     iteration # 10     ecut=    80.00 Ry     beta=0.70
     Davidson diagonalization with overlap
     ethr =  3.59E-03,  avg # of iterations =  1.0

     negative rho (up, down):  2.174E-03 0.000E+00

     total cpu time spent up to now is      204.4 secs

     total energy              =   -1469.25074493 Ry
     Harris-Foulkes estimate   =   -1469.03561727 Ry
     estimated scf accuracy    <       5.53010192 Ry

     iteration # 11     ecut=    80.00 Ry     beta=0.70
     Davidson diagonalization with overlap
     ethr =  3.09E-03,  avg # of iterations =  1.0

     total cpu time spent up to now is      214.8 secs

     total energy              =   -1468.29563588 Ry
     Harris-Foulkes estimate   =   -1469.55243319 Ry
     estimated scf accuracy    <      27.36274022 Ry

     iteration # 12     ecut=    80.00 Ry     beta=0.70
     Davidson diagonalization with overlap
     ethr =  3.09E-03,  avg # of iterations =  1.0

     total cpu time spent up to now is      225.2 secs

     total energy              =   -1468.83212127 Ry
     Harris-Foulkes estimate   =   -1469.02323051 Ry
     estimated scf accuracy    <       4.98141146 Ry

     iteration # 13     ecut=    80.00 Ry     beta=0.70
     Davidson diagonalization with overlap
     ethr =  2.78E-03,  avg # of iterations =  1.0

     total cpu time spent up to now is      235.6 secs

     total energy              =   -1468.90663500 Ry
     Harris-Foulkes estimate   =   -1468.95948664 Ry
     estimated scf accuracy    <       1.24390526 Ry

     iteration # 14     ecut=    80.00 Ry     beta=0.70
     Davidson diagonalization with overlap
     ethr =  6.95E-04,  avg # of iterations =  1.8

     total cpu time spent up to now is      246.7 secs

     total energy              =   -1468.90049817 Ry
     Harris-Foulkes estimate   =   -1468.98751298 Ry
     estimated scf accuracy    <       1.98741277 Ry

     iteration # 15     ecut=    80.00 Ry     beta=0.70
     Davidson diagonalization with overlap
     ethr =  6.95E-04,  avg # of iterations =  1.0

     total cpu time spent up to now is      257.1 secs

     total energy              =   -1468.92479015 Ry
     Harris-Foulkes estimate   =   -1468.92806507 Ry
     estimated scf accuracy    <       0.55808019 Ry

     iteration # 16     ecut=    80.00 Ry     beta=0.70
     Davidson diagonalization with overlap
     ethr =  3.12E-04,  avg # of iterations =  1.0

     total cpu time spent up to now is      267.5 secs

     total energy              =   -1468.91594090 Ry
     Harris-Foulkes estimate   =   -1468.92625396 Ry
     estimated scf accuracy    <       0.53222916 Ry

     iteration # 17     ecut=    80.00 Ry     beta=0.70
     Davidson diagonalization with overlap
     ethr =  2.97E-04,  avg # of iterations =  1.0

     total cpu time spent up to now is      277.9 secs

     total energy              =   -1468.91223928 Ry
     Harris-Foulkes estimate   =   -1468.91936231 Ry
     estimated scf accuracy    <       0.32742502 Ry

     iteration # 18     ecut=    80.00 Ry     beta=0.70
     Davidson diagonalization with overlap
     ethr =  1.83E-04,  avg # of iterations =  2.8

     total cpu time spent up to now is      289.7 secs

     total energy              =   -1468.90048522 Ry
     Harris-Foulkes estimate   =   -1468.91835329 Ry
     estimated scf accuracy    <       0.48064045 Ry

     iteration # 19     ecut=    80.00 Ry     beta=0.70
     Davidson diagonalization with overlap
     ethr =  1.83E-04,  avg # of iterations =  1.0

     total cpu time spent up to now is      300.1 secs

     total energy              =   -1468.90458295 Ry
     Harris-Foulkes estimate   =   -1468.90844073 Ry
     estimated scf accuracy    <       0.06279729 Ry

     iteration # 20     ecut=    80.00 Ry     beta=0.70
     Davidson diagonalization with overlap
     ethr =  3.51E-05,  avg # of iterations =  4.0

     total cpu time spent up to now is      312.8 secs

     total energy              =   -1468.90392985 Ry
     Harris-Foulkes estimate   =   -1468.90688382 Ry
     estimated scf accuracy    <       0.01675418 Ry

     iteration # 21     ecut=    80.00 Ry     beta=0.70
     Davidson diagonalization with overlap
     ethr =  9.36E-06,  avg # of iterations =  5.6

     total cpu time spent up to now is      326.9 secs

     total energy              =   -1468.90434887 Ry
     Harris-Foulkes estimate   =   -1468.90688240 Ry
     estimated scf accuracy    <       0.03033151 Ry

     iteration # 22     ecut=    80.00 Ry     beta=0.70
     Davidson diagonalization with overlap
     ethr =  9.36E-06,  avg # of iterations =  1.1

     total cpu time spent up to now is      337.4 secs

     total energy              =   -1468.90476848 Ry
     Harris-Foulkes estimate   =   -1468.90646546 Ry
     estimated scf accuracy    <       0.01372074 Ry

     iteration # 23     ecut=    80.00 Ry     beta=0.70
     Davidson diagonalization with overlap
     ethr =  7.67E-06,  avg # of iterations =  1.0

     total cpu time spent up to now is      347.8 secs

     total energy              =   -1468.90540439 Ry
     Harris-Foulkes estimate   =   -1468.90594972 Ry
     estimated scf accuracy    <       0.00376053 Ry

     iteration # 24     ecut=    80.00 Ry     beta=0.70
     Davidson diagonalization with overlap
     ethr =  2.10E-06,  avg # of iterations =  6.8

     total cpu time spent up to now is      363.2 secs

     total energy              =   -1468.90466750 Ry
     Harris-Foulkes estimate   =   -1468.90677773 Ry
     estimated scf accuracy    <       0.02948605 Ry

     iteration # 25     ecut=    80.00 Ry     beta=0.70
     Davidson diagonalization with overlap
     ethr =  2.10E-06,  avg # of iterations =  5.1

     total cpu time spent up to now is      376.7 secs

     total energy              =   -1468.90570371 Ry
     Harris-Foulkes estimate   =   -1468.90579116 Ry
     estimated scf accuracy    <       0.00063651 Ry

     iteration # 26     ecut=    80.00 Ry     beta=0.70
     Davidson diagonalization with overlap
     ethr =  3.56E-07,  avg # of iterations =  1.2

     total cpu time spent up to now is      387.3 secs

     total energy              =   -1468.90574119 Ry
     Harris-Foulkes estimate   =   -1468.90575486 Ry
     estimated scf accuracy    <       0.00008047 Ry

     iteration # 27     ecut=    80.00 Ry     beta=0.70
     Davidson diagonalization with overlap
     ethr =  4.50E-08,  avg # of iterations =  2.0

     total cpu time spent up to now is      398.5 secs

     total energy              =   -1468.90574844 Ry
     Harris-Foulkes estimate   =   -1468.90575059 Ry
     estimated scf accuracy    <       0.00001409 Ry

     iteration # 28     ecut=    80.00 Ry     beta=0.70
     Davidson diagonalization with overlap
     ethr =  7.87E-09,  avg # of iterations =  2.0

     total cpu time spent up to now is      410.2 secs

     total energy              =   -1468.90574782 Ry
     Harris-Foulkes estimate   =   -1468.90575109 Ry
     estimated scf accuracy    <       0.00002016 Ry

     iteration # 29     ecut=    80.00 Ry     beta=0.70
     Davidson diagonalization with overlap
     ethr =  7.87E-09,  avg # of iterations =  2.5

     total cpu time spent up to now is      421.9 secs

     total energy              =   -1468.90574708 Ry
     Harris-Foulkes estimate   =   -1468.90575278 Ry
     estimated scf accuracy    <       0.00012229 Ry

     iteration # 30     ecut=    80.00 Ry     beta=0.70
     Davidson diagonalization with overlap
     ethr =  7.87E-09,  avg # of iterations =  1.0

     total cpu time spent up to now is      432.3 secs

     total energy              =   -1468.90574969 Ry
     Harris-Foulkes estimate   =   -1468.90574985 Ry
     estimated scf accuracy    <       0.00000135 Ry

     iteration # 31     ecut=    80.00 Ry     beta=0.70
     Davidson diagonalization with overlap
     ethr =  7.53E-10,  avg # of iterations =  2.0

     total cpu time spent up to now is      443.6 secs

     total energy              =   -1468.90574978 Ry
     Harris-Foulkes estimate   =   -1468.90574984 Ry
     estimated scf accuracy    <       0.00000048 Ry

     iteration # 32     ecut=    80.00 Ry     beta=0.70
     Davidson diagonalization with overlap
     ethr =  2.69E-10,  avg # of iterations =  1.0

     total cpu time spent up to now is      453.9 secs

     total energy              =   -1468.90574981 Ry
     Harris-Foulkes estimate   =   -1468.90574982 Ry
     estimated scf accuracy    <       0.00000010 Ry

     iteration # 33     ecut=    80.00 Ry     beta=0.70
     Davidson diagonalization with overlap
     ethr =  5.49E-11,  avg # of iterations =  1.5

     total cpu time spent up to now is      464.7 secs

     total energy              =   -1468.90574981 Ry
     Harris-Foulkes estimate   =   -1468.90574982 Ry
     estimated scf accuracy    <       0.00000008 Ry

     iteration # 34     ecut=    80.00 Ry     beta=0.70
     Davidson diagonalization with overlap
     ethr =  4.56E-11,  avg # of iterations =  1.0

     total cpu time spent up to now is      475.1 secs

     total energy              =   -1468.90574981 Ry
     Harris-Foulkes estimate   =   -1468.90574982 Ry
     estimated scf accuracy    <       0.00000003 Ry

     iteration # 35     ecut=    80.00 Ry     beta=0.70
     Davidson diagonalization with overlap
     ethr =  1.60E-11,  avg # of iterations =  1.0

     total cpu time spent up to now is      485.4 secs

     total energy              =   -1468.90574981 Ry
     Harris-Foulkes estimate   =   -1468.90574981 Ry
     estimated scf accuracy    <          4.8E-09 Ry

     iteration # 36     ecut=    80.00 Ry     beta=0.70
     Davidson diagonalization with overlap
     ethr =  2.68E-12,  avg # of iterations =  2.0

     total cpu time spent up to now is      496.6 secs

     total energy              =   -1468.90574981 Ry
     Harris-Foulkes estimate   =   -1468.90574982 Ry
     estimated scf accuracy    <       0.00000002 Ry

     iteration # 37     ecut=    80.00 Ry     beta=0.70
     Davidson diagonalization with overlap
     ethr =  2.68E-12,  avg # of iterations =  1.0

     total cpu time spent up to now is      507.0 secs

     total energy              =   -1468.90574981 Ry
     Harris-Foulkes estimate   =   -1468.90574981 Ry
     estimated scf accuracy    <          2.7E-09 Ry

     iteration # 38     ecut=    80.00 Ry     beta=0.70
     Davidson diagonalization with overlap
     ethr =  1.52E-12,  avg # of iterations =  1.0

     total cpu time spent up to now is      517.4 secs

     total energy              =   -1468.90574981 Ry
     Harris-Foulkes estimate   =   -1468.90574981 Ry
     estimated scf accuracy    <          3.4E-10 Ry

     iteration # 39     ecut=    80.00 Ry     beta=0.70
     Davidson diagonalization with overlap
     ethr =  1.87E-13,  avg # of iterations =  1.4

     total cpu time spent up to now is      527.9 secs

     End of self-consistent calculation

          k = 0.1667 0.1682 0.1195 ( 20076 PWs)   bands (ev):

   -75.3009 -75.2457 -34.7317 -34.6786 -34.6660 -34.6229 -34.6201 -34.5702
   -17.0438  -9.8472  -9.8305  -7.6857  -7.6077  -7.2565  -6.8321  -6.3916
    -6.2251  -6.1503  -6.0920  -5.9372  -5.8836  -5.8441  -5.7711  -5.7430
    -5.6835  -4.0392  -4.0332  -4.0243  -4.0150  -3.9957  -3.9781  -3.9597
    -3.9381  -3.9264  -3.9026  -3.8710  -3.8579  -3.7435  -3.7292  -3.7248
     1.6659   3.6566   4.0895   4.5003   4.9470   5.2826   5.3451   5.4950
     5.6363   5.7448   5.9125   6.0780   6.3306   6.4715   6.7132   7.1320
     7.2291   7.3025   7.4212   7.5442   7.9553   8.0285   8.2687   8.6842
     8.8377   8.9088   9.0385   9.0712   9.2475   9.3176   9.4600   9.5336
     9.6132   9.7574   9.9212  10.0721  10.1487  10.3262  10.5679  10.8945
    11.4352  11.6514  11.7361  11.7643  12.1668  12.2280  12.3426  12.4984
    12.6812  12.7601  12.9102  12.9939  13.1709  13.2806  13.3648  13.5189
    13.9911  15.5402  15.8993  16.2628  16.9997  17.0734  17.1948  17.4407
    17.4882  17.6766  17.8483  18.0030

          k = 0.1667 0.1682-0.3608 ( 20081 PWs)   bands (ev):

   -75.3009 -75.2457 -34.7317 -34.6786 -34.6660 -34.6229 -34.6201 -34.5702
   -17.0437  -9.8471  -9.8305  -7.6858  -7.6059  -7.1143  -7.0032  -6.2873
    -6.2085  -6.1994  -6.1383  -5.9658  -5.9136  -5.8541  -5.7841  -5.6976
    -5.6642  -4.0310  -4.0198  -4.0128  -4.0031  -3.9920  -3.9742  -3.9551
    -3.9458  -3.9217  -3.9073  -3.8605  -3.8314  -3.7917  -3.7660  -3.7272
     1.6804   3.7562   4.0071   4.3251   5.2568   5.3366   5.5496   5.6409
     5.7039   5.7454   5.9492   5.9919   6.2210   6.2689   6.8873   7.0249
     7.2133   7.3411   7.3941   7.5088   7.6896   7.8774   8.3473   8.4851
     8.6998   8.8561   8.9338   9.0342   9.0863   9.3773   9.4650   9.5672
     9.7102   9.8845   9.9782  10.0481  10.1709  10.2539  10.5574  10.7901
    11.6486  11.7397  12.0090  12.0476  12.1057  12.1203  12.3682  12.5081
    12.6791  12.7210  12.8707  13.0130  13.1334  13.2223  13.3469  13.3642
    14.3884  15.6205  16.2089  16.5178  16.6481  16.8278  17.1854  17.3973
    17.4975  17.6752  17.7124  17.8957

          k = 0.1667 0.1682-0.1206 ( 20064 PWs)   bands (ev):

   -75.3009 -75.2457 -34.7317 -34.6786 -34.6660 -34.6229 -34.6201 -34.5702
   -17.0437  -9.8472  -9.8306  -7.6847  -7.6082  -7.2512  -6.8491  -6.3770
    -6.2066  -6.1815  -6.1057  -5.9100  -5.8624  -5.8455  -5.7717  -5.7393
    -5.7092  -4.0375  -4.0337  -4.0244  -4.0083  -3.9980  -3.9779  -3.9606
    -3.9381  -3.9242  -3.9074  -3.8681  -3.8598  -3.7501  -3.7319  -3.7221
     1.6680   3.6691   4.0710   4.5246   4.9453   5.2699   5.3766   5.4300
     5.6880   5.7981   5.8465   6.0333   6.4098   6.5052   6.7599   7.0400
     7.1358   7.3348   7.3912   7.4581   8.0092   8.1480   8.2237   8.5801
     8.8144   8.9729   9.0031   9.1087   9.2139   9.2679   9.4869   9.5767
     9.6364   9.7951  10.0297  10.0800  10.1957  10.3667  10.5701  10.8470
    11.3269  11.6757  11.7141  11.7722  12.1585  12.2287  12.3738  12.5180
    12.6371  12.8049  12.8722  12.9987  13.1333  13.2428  13.3279  13.5357
    13.9155  15.6772  16.0267  16.2481  16.8846  17.1138  17.2256  17.3925
    17.5165  17.6397  17.8784  17.9668

          k = 0.1667-0.5047 0.1195 ( 20082 PWs)   bands (ev):

   -75.3009 -75.2457 -34.7317 -34.6786 -34.6660 -34.6229 -34.6201 -34.5703
   -17.0438  -9.8459  -9.8306  -7.6664  -7.6071  -6.9328  -6.9129  -6.3988
    -6.3481  -6.1802  -6.1512  -5.9809  -5.9363  -5.7903  -5.7435  -5.7104
    -5.6746  -4.0683  -4.0377  -4.0296  -4.0118  -4.0047  -3.9896  -3.9689
    -3.9400  -3.9357  -3.9076  -3.8906  -3.8314  -3.8142  -3.7754  -3.7590
     1.5723   3.7225   3.9168   4.0278   5.1742   5.2027   5.5407   5.6018
     5.9751   6.0676   6.2110   6.2345   6.3441   6.4499   7.0122   7.2629
     7.3628   7.4787   7.6562   7.7536   7.7942   7.9800   8.0911   8.1634
     8.6139   8.6959   8.7830   8.8391   9.0464   9.1207   9.4046   9.4681
     9.6694   9.6963   9.7948   9.8992  10.0826  10.3923  10.6768  10.8369
    11.7499  11.7863  12.0871  12.1441  12.1873  12.1967  12.5474  12.5653
    12.9113  13.0152  13.0748  13.1193  13.2361  13.2415  13.3730  13.4042
    14.3110  15.1173  15.6155  16.0363  16.4386  16.6370  16.8106  17.0095
    17.2178  17.3728  17.7611  17.8798

          k = 0.1667-0.5047-0.3608 ( 20066 PWs)   bands (ev):

   -75.3009 -75.2457 -34.7317 -34.6786 -34.6660 -34.6229 -34.6201 -34.5703
   -17.0438  -9.8459  -9.8306  -7.6650  -7.6065  -6.9035  -6.8752  -6.3899
    -6.3305  -6.1906  -6.1425  -6.0913  -6.0395  -5.7756  -5.7421  -5.6720
    -5.6308  -4.0547  -4.0403  -4.0293  -4.0258  -3.9979  -3.9824  -3.9637
    -3.9400  -3.9311  -3.9213  -3.8759  -3.8212  -3.8096  -3.7946  -3.7737
     1.5774   3.7216   3.9683   4.0857   5.3021   5.3675   5.5642   5.6298
     6.0864   6.1207   6.2028   6.2502   6.3387   6.3649   7.0274   7.0489
     7.1312   7.1503   7.4994   7.6161   7.8784   8.0467   8.0998   8.2143
     8.2516   8.3826   8.9122   9.0280   9.2542   9.2912   9.4891   9.5299
     9.6449   9.6800   9.8382   9.9100  10.0953  10.3881  10.6173  10.7835
    11.9492  12.0023  12.0510  12.0711  12.1660  12.2034  12.6544  12.6986
    12.7954  12.9134  13.1073  13.1426  13.2887  13.2911  13.4327  13.4475
    14.1725  14.9999  15.7276  15.9248  16.4572  16.5627  16.9962  17.0101
    17.2754  17.4087  17.5467  17.8139

          k = 0.1667-0.5047-0.1206 ( 20072 PWs)   bands (ev):

   -75.3009 -75.2457 -34.7317 -34.6786 -34.6660 -34.6229 -34.6201 -34.5703
   -17.0438  -9.8459  -9.8306  -7.6657  -7.6074  -6.9374  -6.9116  -6.3912
    -6.3541  -6.1923  -6.1430  -5.9681  -5.9375  -5.7720  -5.7483  -5.7229
    -5.6812  -4.0683  -4.0380  -4.0300  -4.0119  -4.0035  -3.9899  -3.9691
    -3.9457  -3.9284  -3.9045  -3.8824  -3.8354  -3.8139  -3.7787  -3.7669
     1.5730   3.7135   3.9227   4.0380   5.1663   5.1977   5.6142   5.6770
     6.0283   6.0862   6.1250   6.1917   6.3178   6.3692   7.0175   7.1316
     7.2437   7.4313   7.7105   7.8113   7.9521   8.0620   8.1273   8.1946
     8.4711   8.5308   8.8759   8.9504   9.1766   9.2826   9.4124   9.4293
     9.4650   9.5216   9.8260   9.8859  10.0950  10.3754  10.7680  10.9720
    11.7260  11.7486  12.0749  12.1260  12.1642  12.1932  12.6210  12.6383
    12.7751  12.8993  13.1083  13.1556  13.2394  13.2644  13.3678  13.3826
    14.3195  15.1153  15.5930  16.0857  16.4713  16.5611  16.8155  17.1427
    17.1900  17.4873  17.7121  17.8223

          k =-0.5000 0.1682 0.1217 ( 20080 PWs)   bands (ev):

   -75.3009 -75.2457 -34.7317 -34.6786 -34.6661 -34.6229 -34.6201 -34.5703
   -17.0436  -9.8475  -9.8338  -7.6590  -7.5994  -6.9565  -6.9092  -6.4154
    -6.3418  -6.1702  -6.1123  -6.0134  -5.9480  -5.7688  -5.7422  -5.6978
    -5.6806  -4.0489  -4.0370  -4.0204  -4.0099  -4.0048  -3.9978  -3.9770
    -3.9618  -3.9322  -3.9192  -3.8955  -3.8438  -3.7952  -3.7780  -3.7618
     1.5730   3.6988   3.9197   4.0078   5.1564   5.2045   5.5410   5.6435
     5.9462   6.0793   6.1277   6.2243   6.2585   6.3883   6.9139   7.1181
     7.3420   7.4971   7.6717   7.7966   7.9285   8.1448   8.1874   8.3268
     8.5573   8.7114   8.9288   9.1843   9.2439   9.3347   9.3765   9.5287
     9.5767   9.6490   9.7609   9.7994  10.0297  10.1558  10.5474  10.7461
    11.7352  11.7640  12.0922  12.1525  12.1947  12.2019  12.5788  12.6871
    12.7280  12.8734  12.9475  13.0422  13.2408  13.2619  13.4055  13.4719
    14.2737  15.1919  15.6283  16.0895  16.4626  16.6556  16.9222  17.1192
    17.3038  17.4202  17.6218  17.7607

          k =-0.5000 0.1682-0.3586 ( 20076 PWs)   bands (ev):

   -75.3009 -75.2457 -34.7317 -34.6786 -34.6661 -34.6229 -34.6201 -34.5703
   -17.0436  -9.8475  -9.8338  -7.6570  -7.5995  -6.9304  -6.8699  -6.3763
    -6.3441  -6.2106  -6.1352  -6.0569  -6.0494  -5.7600  -5.7171  -5.6876
    -5.6415  -4.0364  -4.0336  -4.0181  -4.0154  -4.0083  -4.0000  -3.9720
    -3.9567  -3.9418  -3.9281  -3.8839  -3.8342  -3.7938  -3.7854  -3.7735
     1.5807   3.7134   3.9394   4.0598   5.3151   5.3995   5.4772   5.6477
     6.0478   6.1498   6.1727   6.2244   6.3172   6.3796   6.6786   6.9874
     7.1780   7.4315   7.5493   7.6577   7.9497   8.0514   8.0889   8.1564
     8.3360   8.4261   9.1118   9.2558   9.3816   9.4500   9.5010   9.5996
     9.6795   9.7918   9.8566   9.9808  10.0014  10.1317  10.3722  10.5399
    12.0201  12.0474  12.0774  12.0859  12.1236  12.2008  12.4425  12.6780
    12.7119  12.8790  13.0592  13.1247  13.3456  13.3555  13.4055  13.4374
    14.1917  15.0469  15.7693  16.0418  16.2002  16.5284  17.0364  17.1615
    17.2984  17.4095  17.6498  17.7227

          k =-0.5000-0.5047 0.1217 ( 20108 PWs)   bands (ev):

   -75.3009 -75.2457 -34.7317 -34.6786 -34.6661 -34.6229 -34.6201 -34.5703
   -17.0436  -9.8463  -9.8339  -7.6370  -7.5976  -6.8648  -6.8297  -6.4699
    -6.4240  -6.1523  -6.0722  -5.9695  -5.8999  -5.8078  -5.7500  -5.7260
    -5.6943  -4.0727  -4.0400  -4.0352  -4.0203  -4.0089  -3.9914  -3.9865
    -3.9791  -3.9536  -3.9429  -3.9081  -3.8645  -3.8522  -3.7849  -3.7738
     1.4455   3.4229   3.8298   4.1126   4.7920   4.8035   5.7132   5.7282
     6.0173   6.0524   6.3894   6.4310   6.5633   6.7050   7.2482   7.5017
     7.5405   7.5735   7.8735   8.0542   8.1172   8.1971   8.3004   8.3679
     8.4768   8.6569   8.7014   8.7944   8.8818   9.1789   9.2210   9.2803
     9.6025   9.6615   9.7384   9.8761  10.0752  10.0920  10.9322  11.3133
    11.4713  11.4873  12.2075  12.2163  12.2298  12.2452  12.4347  12.4405
    12.7862  12.7917  13.1611  13.2122  13.2488  13.2853  13.6536  13.6883
    14.0385  14.6071  14.8432  15.7491  16.2525  16.4645  16.5497  16.8592
    16.9614  17.3268  17.4742  17.8485

          k =-0.5000-0.5047-0.3586 ( 20112 PWs)   bands (ev):

   -75.3009 -75.2457 -34.7317 -34.6786 -34.6661 -34.6229 -34.6202 -34.5703
   -17.0436  -9.8463  -9.8339  -7.6359  -7.5973  -6.8293  -6.7940  -6.4810
    -6.4250  -6.1806  -6.1138  -5.9152  -5.9032  -5.8541  -5.7881  -5.7158
    -5.6915  -4.0495  -4.0463  -4.0280  -4.0255  -4.0065  -3.9995  -3.9885
    -3.9637  -3.9528  -3.9166  -3.8916  -3.8758  -3.8514  -3.8153  -3.7951
     1.4636   3.7036   3.7711   3.7979   4.9685   4.9791   5.7014   5.7101
     6.0924   6.0944   6.4063   6.4454   6.6758   6.9603   7.0782   7.1561
     7.3662   7.4150   7.8738   7.9534   8.0008   8.0308   8.4562   8.5803
     8.6087   8.6411   8.6944   8.7618   8.9106   8.9814   9.0191   9.0915
     9.6013   9.7958   9.8631   9.8698   9.9660  10.5567  10.5917  10.6596
    11.9725  12.0057  12.0274  12.0350  12.2503  12.2561  12.5625  12.5789
    12.7547  12.7637  13.1427  13.1833  13.3977  13.4681  13.5335  13.5643
    14.1832  15.0444  15.2834  15.7700  15.7846  16.5715  16.7475  16.9656
    17.1283  17.2341  17.4447  17.5342

          k =-0.1667 0.1682-0.1195 ( 20076 PWs)   bands (ev):

   -75.3009 -75.2457 -34.7317 -34.6786 -34.6660 -34.6229 -34.6201 -34.5703
   -17.0438  -9.8473  -9.8305  -7.6872  -7.6057  -7.2583  -6.8310  -6.3829
    -6.2334  -6.1473  -6.1007  -5.9265  -5.8884  -5.8450  -5.7865  -5.7292
    -5.6800  -4.0380  -4.0355  -4.0179  -3.9994  -3.9882  -3.9773  -3.9720
    -3.9567  -3.9300  -3.9048  -3.8704  -3.8608  -3.7599  -3.7284  -3.7010
     1.6655   3.6601   4.0970   4.5030   4.9352   5.2594   5.3092   5.5089
     5.6420   5.7394   5.9591   6.0855   6.2919   6.4174   6.8640   7.0460
     7.2192   7.3116   7.4687   7.5671   7.9584   8.0151   8.2851   8.7118
     8.7635   8.8925   9.0319   9.1346   9.2281   9.2936   9.4653   9.5465
     9.5854   9.6921   9.9181  10.0822  10.1959  10.3419  10.5424  10.9139
    11.4228  11.6737  11.7389  11.7865  12.1751  12.2221  12.3403  12.5090
    12.6784  12.7049  12.9098  13.0019  13.1758  13.2691  13.3595  13.5149
    13.9511  15.4629  16.0918  16.4558  16.8342  17.0003  17.1262  17.2990
    17.5691  17.7137  17.8718  18.0345

          k =-0.1667 0.1682 0.3608 ( 20081 PWs)   bands (ev):

   -75.3009 -75.2457 -34.7317 -34.6786 -34.6661 -34.6229 -34.6201 -34.5703
   -17.0437  -9.8472  -9.8305  -7.6865  -7.6050  -7.1182  -7.0004  -6.2730
    -6.2394  -6.2023  -6.1102  -5.9574  -5.9110  -5.8792  -5.7674  -5.7090
    -5.6623  -4.0297  -4.0246  -4.0095  -4.0031  -3.9889  -3.9764  -3.9692
    -3.9485  -3.9100  -3.8840  -3.8675  -3.8549  -3.7812  -3.7675  -3.7254
     1.6806   3.7553   4.0095   4.3304   5.2266   5.3044   5.5610   5.6064
     5.7246   5.7668   5.9660   6.0314   6.2156   6.2940   6.8598   7.0042
     7.2216   7.3577   7.4009   7.4973   7.6931   7.8339   8.4049   8.5091
     8.6512   8.8359   8.9507   9.0358   9.1353   9.4021   9.4712   9.5157
     9.7051   9.8327   9.9873  10.0420  10.1626  10.2954  10.5457  10.7688
    11.6641  11.7494  12.0118  12.0443  12.1177  12.1191  12.3840  12.4865
    12.7067  12.7301  12.8087  13.0279  13.1340  13.1810  13.3472  13.3721
    14.3946  15.7489  16.0556  16.5145  16.6951  17.0098  17.0877  17.3428
    17.4368  17.6188  17.8081  17.9143

          k =-0.1667 0.1682 0.1206 ( 20064 PWs)   bands (ev):

   -75.3009 -75.2457 -34.7317 -34.6786 -34.6660 -34.6229 -34.6201 -34.5703
   -17.0437  -9.8473  -9.8305  -7.6850  -7.6067  -7.2604  -6.8368  -6.3758
    -6.2403  -6.1456  -6.0892  -5.9077  -5.8990  -5.8397  -5.7957  -5.7196
    -5.7007  -4.0394  -4.0347  -4.0122  -4.0087  -3.9878  -3.9785  -3.9674
    -3.9445  -3.9306  -3.9001  -3.8740  -3.8602  -3.7605  -3.7299  -3.7134
     1.6664   3.6549   4.1006   4.5097   4.9270   5.2860   5.3679   5.4862
     5.6888   5.8043   5.8690   6.0423   6.3217   6.3823   6.8535   7.0029
     7.1799   7.3249   7.4344   7.4904   7.9839   8.1713   8.2353   8.5634
     8.8690   8.9032   8.9885   9.1585   9.2070   9.2418   9.5012   9.5209
     9.6130   9.8107  10.0047  10.1180  10.1905  10.3810  10.5256  10.8774
    11.3242  11.6976  11.7207  11.7894  12.1677  12.2193  12.3720  12.5365
    12.6465  12.7478  12.8678  12.9927  13.1289  13.2348  13.3135  13.5494
    14.0098  15.5110  16.0622  16.4527  16.7810  16.9852  17.1650  17.3624
    17.5303  17.7543  17.9248  18.0000

          k = 0.5000 0.1682-0.1217 ( 20080 PWs)   bands (ev):

   -75.3009 -75.2457 -34.7317 -34.6786 -34.6661 -34.6229 -34.6201 -34.5703
   -17.0436  -9.8475  -9.8338  -7.6586  -7.5995  -6.9587  -6.9082  -6.4103
    -6.3362  -6.1777  -6.1293  -6.0116  -5.9330  -5.7682  -5.7384  -5.7118
    -5.6726  -4.0500  -4.0383  -4.0165  -4.0068  -4.0005  -3.9999  -3.9787
    -3.9617  -3.9359  -3.9220  -3.9009  -3.8439  -3.7944  -3.7823  -3.7523
     1.5733   3.6885   3.9181   4.0240   5.1685   5.1924   5.5797   5.6411
     5.8907   6.1007   6.1159   6.1961   6.2539   6.3935   6.9096   7.1223
     7.3551   7.5209   7.7051   7.7809   7.9485   8.1371   8.2417   8.2884
     8.5018   8.7158   8.9749   9.0763   9.2750   9.3170   9.3901   9.5143
     9.6226   9.6873   9.7372   9.8050  10.0448  10.1183  10.5493  10.7424
    11.7323  11.7695  12.1060  12.1376  12.1735  12.2246  12.6019  12.6876
    12.7009  12.8765  12.9709  13.0301  13.2485  13.2571  13.4132  13.4491
    14.3050  15.2017  15.6142  16.0581  16.3946  16.7138  16.8756  17.0946
    17.2990  17.5673  17.6572  17.7184

     the Fermi energy is    12.8344 ev

!    total energy              =   -1468.90574981 Ry
     Harris-Foulkes estimate   =   -1468.90574981 Ry
     estimated scf accuracy    <          5.8E-11 Ry

     The total energy is the sum of the following terms:

     one-electron contribution =    -300.48259469 Ry
     hartree contribution      =     286.35478570 Ry
     xc contribution           =    -357.49067044 Ry
     ewald contribution        =   -1097.24372834 Ry
     smearing contrib. (-TS)   =      -0.04354204 Ry

     convergence has been achieved in  39 iterations

     Forces acting on atoms (Ry/au):

     atom    1 type  1   force =     0.34828150    3.47105502    9.28065617
     atom    2 type  1   force =     0.00010199   -0.00432031    0.00062497
     atom    3 type  1   force =     0.00366004    0.00342138    0.00016668
     atom    4 type  1   force =     0.00046970   -0.00283833    0.00059832
     atom    5 type  2   force =    -0.00233568   -0.00020257   -0.00929155
     atom    6 type  2   force =     0.00310509   -0.00059837    0.00761682
     atom    7 type  3   force =    -0.01491835    0.01348660    0.03394190
     atom    8 type  3   force =     0.00529754    0.00175228   -0.02676659
     atom    9 type  4   force =     0.00005031   -0.01476466   -0.04001465
     atom   10 type  4   force =     0.00660216    0.00040783    0.03087157
     atom   11 type  4   force =     0.01970254    0.00064768    0.04304220
     atom   12 type  4   force =    -0.00446942    0.00148619   -0.03110207
     atom   13 type  4   force =    -0.03759672   -0.02991199    0.01323076
     atom   14 type  4   force =     0.03475211    0.03044119    0.00028698
     atom   15 type  4   force =     0.01646723   -0.05749603   -0.02825480
     atom   16 type  4   force =    -0.02944681    0.03457117   -0.00157727
     atom   17 type  4   force =    -0.03100564    0.01886266    0.01329701
     atom   18 type  4   force =     0.02220811   -0.02577260    0.00201416
     atom   19 type  4   force =     0.00826315    0.04951513   -0.02699919
     atom   20 type  4   force =    -0.00933569   -0.03665059   -0.01497436
     atom   21 type  5   force =    -0.33985317   -3.45309166   -9.24736706

     Total force =    13.995729     Total SCF correction =     0.000023


     entering subroutine stress ...

          total   stress  (Ry/bohr**3)                   (kbar)     P=  408.59
   0.00026262   0.00009094   0.00020546         38.63     13.38     30.22
   0.00009094   0.00117483   0.00251780         13.38    172.82    370.38
   0.00020546   0.00251780   0.00689513         30.22    370.38   1014.31


     BFGS Geometry Optimization

     number of scf cycles    =   1
     number of bfgs steps    =   0

     energy   new            =   -1468.9057498144 Ry

     new trust radius        =       0.5000000000 bohr
     new conv_thr            =            1.0E-10 Ry


ATOMIC_POSITIONS (crystal)
Pb1      0.007307099   0.528389778   0.282358484
Pb1      0.994200473   0.488179351   0.749302132
Pb1      0.494217326   0.011816352   0.249300569
Pb1      0.505802215   0.988186434   0.750702041
Co1     -0.000010916  -0.000000968  -0.000031696
Co1      0.500014585   0.499997140   0.500025983
Os1     -0.000071151   0.000064459   0.500115784
Os1      0.500025491   0.500008375  -0.000091307
O1       0.933900850   0.990529433   0.257963501
O1       0.066130787   0.009401949   0.742005310
O1       0.566192626   0.490603096   0.242046827
O1       0.433879315   0.509407103   0.757993904
O1       0.241021792   0.282057037   0.035445133
O1       0.758964533   0.717945493   0.964600979
O1       0.258878398   0.781925200   0.464503616
O1       0.741060605   0.217965232   0.535394620
O1       0.282152997   0.764690153   0.036545359
O1       0.717805116   0.235276821   0.963506871
O1       0.217739536   0.264836656   0.463407899
O1       0.782256028   0.735224830   0.536448919
XMU       0.000532297   0.452496077   0.137455073



     Writing output data file PbCoOsO6.nmu1.rel.002469169.save
     NEW-OLD atomic charge density approx. for the potential

     Check: negative/imaginary core charge=   -0.000005    0.000000

     total cpu time spent up to now is      566.0 secs

     Self-consistent Calculation

     iteration #  1     ecut=    80.00 Ry     beta=0.70
     Davidson diagonalization with overlap
     c_bands:  2 eigenvalues not converged
     c_bands:  1 eigenvalues not converged
     ethr =  1.00E-06,  avg # of iterations = 13.4

     total cpu time spent up to now is      602.7 secs

     total energy              =   -1471.78981571 Ry
     Harris-Foulkes estimate   =   -1472.57407396 Ry
     estimated scf accuracy    <       0.93866651 Ry

     iteration #  2     ecut=    80.00 Ry     beta=0.70
     Davidson diagonalization with overlap
     ethr =  5.24E-04,  avg # of iterations =  4.1

     total cpu time spent up to now is      621.4 secs

     total energy              =   -1470.39978912 Ry
     Harris-Foulkes estimate   =   -1479.97534415 Ry
     estimated scf accuracy    <      79.98803675 Ry

     iteration #  3     ecut=    80.00 Ry     beta=0.70
     Davidson diagonalization with overlap
     ethr =  5.24E-04,  avg # of iterations =  4.4

     total cpu time spent up to now is      641.5 secs

     total energy              =   -1472.27357617 Ry
     Harris-Foulkes estimate   =   -1473.05745366 Ry
     estimated scf accuracy    <       8.04867037 Ry

     iteration #  4     ecut=    80.00 Ry     beta=0.70
     Davidson diagonalization with overlap
     ethr =  5.24E-04,  avg # of iterations =  2.0

     total cpu time spent up to now is      652.9 secs

     total energy              =   -1472.42791791 Ry
     Harris-Foulkes estimate   =   -1472.57698229 Ry
     estimated scf accuracy    <       2.01381399 Ry

     iteration #  5     ecut=    80.00 Ry     beta=0.70
     Davidson diagonalization with overlap
     ethr =  5.24E-04,  avg # of iterations =  1.2

     total cpu time spent up to now is      663.4 secs

     total energy              =   -1472.47796477 Ry
     Harris-Foulkes estimate   =   -1472.54532822 Ry
     estimated scf accuracy    <       0.55664409 Ry

     iteration #  6     ecut=    80.00 Ry     beta=0.70
     Davidson diagonalization with overlap
     ethr =  3.11E-04,  avg # of iterations =  1.0

     total cpu time spent up to now is      673.8 secs

     total energy              =   -1472.43675928 Ry
     Harris-Foulkes estimate   =   -1472.60499342 Ry
     estimated scf accuracy    <       3.36706572 Ry

     iteration #  7     ecut=    80.00 Ry     beta=0.70
     Davidson diagonalization with overlap
     ethr =  3.11E-04,  avg # of iterations =  1.0

     total cpu time spent up to now is      684.2 secs

     total energy              =   -1472.51321549 Ry
     Harris-Foulkes estimate   =   -1472.52586809 Ry
     estimated scf accuracy    <       0.06308772 Ry

     iteration #  8     ecut=    80.00 Ry     beta=0.70
     Davidson diagonalization with overlap
     ethr =  3.52E-05,  avg # of iterations =  6.0

     total cpu time spent up to now is      698.9 secs

     total energy              =   -1472.51606035 Ry
     Harris-Foulkes estimate   =   -1472.52178763 Ry
     estimated scf accuracy    <       0.07674661 Ry

     iteration #  9     ecut=    80.00 Ry     beta=0.70
     Davidson diagonalization with overlap
     ethr =  3.52E-05,  avg # of iterations =  1.0

     total cpu time spent up to now is      709.3 secs

     total energy              =   -1472.51979861 Ry
     Harris-Foulkes estimate   =   -1472.52080676 Ry
     estimated scf accuracy    <       0.04291670 Ry

     iteration # 10     ecut=    80.00 Ry     beta=0.70
     Davidson diagonalization with overlap
     ethr =  2.40E-05,  avg # of iterations =  1.0

     total cpu time spent up to now is      719.6 secs

     total energy              =   -1472.51988140 Ry
     Harris-Foulkes estimate   =   -1472.52015994 Ry
     estimated scf accuracy    <       0.01177446 Ry

     iteration # 11     ecut=    80.00 Ry     beta=0.70
     Davidson diagonalization with overlap
     ethr =  6.58E-06,  avg # of iterations =  2.4

     total cpu time spent up to now is      731.1 secs

     total energy              =   -1472.51981052 Ry
     Harris-Foulkes estimate   =   -1472.52001197 Ry
     estimated scf accuracy    <       0.00413097 Ry

     iteration # 12     ecut=    80.00 Ry     beta=0.70
     Davidson diagonalization with overlap
     ethr =  2.31E-06,  avg # of iterations =  2.9

     total cpu time spent up to now is      742.9 secs

     total energy              =   -1472.51989633 Ry
     Harris-Foulkes estimate   =   -1472.51991268 Ry
     estimated scf accuracy    <       0.00012393 Ry

     iteration # 13     ecut=    80.00 Ry     beta=0.70
     Davidson diagonalization with overlap
     ethr =  6.92E-08,  avg # of iterations =  1.3

     total cpu time spent up to now is      753.5 secs

     total energy              =   -1472.51990405 Ry
     Harris-Foulkes estimate   =   -1472.51990797 Ry
     estimated scf accuracy    <       0.00002293 Ry

     iteration # 14     ecut=    80.00 Ry     beta=0.70
     Davidson diagonalization with overlap
     ethr =  1.28E-08,  avg # of iterations =  1.1

     total cpu time spent up to now is      764.2 secs

     total energy              =   -1472.51990573 Ry
     Harris-Foulkes estimate   =   -1472.51990650 Ry
     estimated scf accuracy    <       0.00000535 Ry

     iteration # 15     ecut=    80.00 Ry     beta=0.70
     Davidson diagonalization with overlap
     ethr =  2.99E-09,  avg # of iterations =  2.0

     total cpu time spent up to now is      775.4 secs

     total energy              =   -1472.51990604 Ry
     Harris-Foulkes estimate   =   -1472.51990642 Ry
     estimated scf accuracy    <       0.00000338 Ry

     iteration # 16     ecut=    80.00 Ry     beta=0.70
     Davidson diagonalization with overlap
     ethr =  1.89E-09,  avg # of iterations =  1.0

     total cpu time spent up to now is      785.8 secs

     total energy              =   -1472.51990618 Ry
     Harris-Foulkes estimate   =   -1472.51990628 Ry
     estimated scf accuracy    <       0.00000051 Ry

     iteration # 17     ecut=    80.00 Ry     beta=0.70
     Davidson diagonalization with overlap
     ethr =  2.83E-10,  avg # of iterations =  2.0

     total cpu time spent up to now is      797.0 secs

     total energy              =   -1472.51990616 Ry
     Harris-Foulkes estimate   =   -1472.51990631 Ry
     estimated scf accuracy    <       0.00000141 Ry

     iteration # 18     ecut=    80.00 Ry     beta=0.70
     Davidson diagonalization with overlap
     ethr =  2.83E-10,  avg # of iterations =  1.9

     total cpu time spent up to now is      808.0 secs

     total energy              =   -1472.51990618 Ry
     Harris-Foulkes estimate   =   -1472.51990633 Ry
     estimated scf accuracy    <       0.00000154 Ry

     iteration # 19     ecut=    80.00 Ry     beta=0.70
     Davidson diagonalization with overlap
     ethr =  2.83E-10,  avg # of iterations =  1.0

     total cpu time spent up to now is      818.3 secs

     total energy              =   -1472.51990625 Ry
     Harris-Foulkes estimate   =   -1472.51990626 Ry
     estimated scf accuracy    <       0.00000002 Ry

     iteration # 20     ecut=    80.00 Ry     beta=0.70
     Davidson diagonalization with overlap
     ethr =  1.12E-11,  avg # of iterations =  2.2

     total cpu time spent up to now is      831.3 secs

     total energy              =   -1472.51990625 Ry
     Harris-Foulkes estimate   =   -1472.51990626 Ry
     estimated scf accuracy    <       0.00000004 Ry

     iteration # 21     ecut=    80.00 Ry     beta=0.70
     Davidson diagonalization with overlap
     ethr =  1.12E-11,  avg # of iterations =  1.1

     total cpu time spent up to now is      841.8 secs

     total energy              =   -1472.51990626 Ry
     Harris-Foulkes estimate   =   -1472.51990626 Ry
     estimated scf accuracy    <          1.5E-09 Ry

     iteration # 22     ecut=    80.00 Ry     beta=0.70
     Davidson diagonalization with overlap
     ethr =  8.27E-13,  avg # of iterations =  2.0

     total cpu time spent up to now is      853.6 secs

     total energy              =   -1472.51990626 Ry
     Harris-Foulkes estimate   =   -1472.51990626 Ry
     estimated scf accuracy    <          1.1E-09 Ry

     iteration # 23     ecut=    80.00 Ry     beta=0.70
     Davidson diagonalization with overlap
     ethr =  5.88E-13,  avg # of iterations =  1.0

     total cpu time spent up to now is      863.9 secs

     End of self-consistent calculation

          k = 0.1667 0.1682 0.1195 ( 20076 PWs)   bands (ev):

   -75.5364 -75.2867 -34.9487 -34.8669 -34.8364 -34.7280 -34.6897 -34.6112
    -7.8106  -7.3528  -6.9313  -6.6825  -6.5276  -6.3832  -6.1937  -6.1768
    -6.0878  -5.9814  -5.9049  -5.8379  -5.7804  -5.5098  -5.4238  -5.2163
    -5.0519  -4.1297  -4.1203  -4.1061  -4.1018  -4.0843  -4.0699  -4.0471
    -4.0278  -4.0044  -3.9788  -3.9595  -3.9449  -3.8298  -3.8234  -3.8129
     2.0566   3.5724   4.0087   4.4129   4.8479   5.1551   5.2413   5.4607
     5.5572   5.6576   5.8430   6.0058   6.1858   6.4383   6.6564   7.0315
     7.1514   7.1882   7.3813   7.5228   7.8768   7.9747   8.2321   8.5649
     8.7225   8.8209   8.8843   9.0738   9.1959   9.2343   9.3956   9.4860
     9.5416   9.7033   9.8363   9.9122  10.1466  10.2937  10.4946  10.8234
    11.3402  11.5440  11.6326  11.6756  12.0747  12.1206  12.2459  12.3380
    12.5919  12.6308  12.8179  12.9128  13.0921  13.1675  13.2537  13.4063
    13.6598  15.6323  16.0934  16.4762  16.9640  17.0313  17.1769  17.4084
    17.5450  17.6364  17.8811  17.9182

          k = 0.1667 0.1682-0.3608 ( 20081 PWs)   bands (ev):

   -75.5364 -75.2867 -34.9487 -34.8669 -34.8364 -34.7280 -34.6897 -34.6112
    -7.8001  -7.3026  -6.9973  -6.6648  -6.4638  -6.3777  -6.2736  -6.1961
    -6.0964  -5.9913  -5.8944  -5.8532  -5.7999  -5.5001  -5.3936  -5.2116
    -5.0507  -4.1285  -4.1031  -4.0999  -4.0858  -4.0735  -4.0662  -4.0447
    -4.0314  -4.0049  -3.9806  -3.9454  -3.9151  -3.8821  -3.8599  -3.8252
     2.0832   3.6087   3.9665   4.2352   5.1021   5.2935   5.4439   5.5720
     5.6112   5.6654   5.8651   5.9684   6.1712   6.2180   6.7438   6.9938
     7.0765   7.2788   7.3569   7.4322   7.5765   7.8236   8.2924   8.4112
     8.6349   8.7006   8.8142   8.9978   9.0334   9.2689   9.4459   9.4822
     9.6763   9.8144   9.8758   9.9427  10.1383  10.2384  10.4918  10.7024
    11.5374  11.6451  11.9156  11.9502  12.0074  12.0315  12.2497  12.3992
    12.5462  12.6445  12.7501  12.9139  13.0171  13.1325  13.2578  13.2732
    13.9735  15.9220  16.3825  16.4853  16.6955  16.8059  17.1425  17.4309
    17.5438  17.6024  17.7685  17.8417

          k = 0.1667 0.1682-0.1206 ( 20064 PWs)   bands (ev):

   -75.5364 -75.2867 -34.9487 -34.8669 -34.8364 -34.7280 -34.6897 -34.6112
    -7.8150  -7.3370  -6.9457  -6.6866  -6.5365  -6.3795  -6.1852  -6.1548
    -6.0874  -5.9863  -5.8912  -5.8439  -5.8151  -5.5022  -5.4177  -5.2103
    -5.0558  -4.1286  -4.1218  -4.1064  -4.0925  -4.0848  -4.0703  -4.0479
    -4.0256  -4.0075  -3.9782  -3.9555  -3.9532  -3.8393  -3.8228  -3.8106
     2.0577   3.6047   3.9849   4.4320   4.8527   5.0805   5.2829   5.3946
     5.5975   5.7077   5.7941   5.9721   6.3047   6.5060   6.6890   6.9353
     6.9931   7.2523   7.3513   7.4372   7.9293   8.0846   8.1929   8.4591
     8.7076   8.8410   8.9483   9.0148   9.1915   9.2013   9.4233   9.5253
     9.5613   9.7459   9.8852  10.0281  10.1994  10.3226  10.4887  10.7409
    11.2276  11.5788  11.6054  11.6835  12.0631  12.1308  12.2740  12.3534
    12.5533  12.6682  12.7747  12.9208  13.0492  13.1142  13.2287  13.3855
    13.6398  15.7737  16.2074  16.5625  16.8213  17.0517  17.1845  17.3728
    17.5221  17.6027  17.8592  17.9546

          k = 0.1667-0.5047 0.1195 ( 20082 PWs)   bands (ev):

   -75.5364 -75.2867 -34.9487 -34.8669 -34.8364 -34.7280 -34.6897 -34.6112
    -7.8084  -7.1512  -6.9062  -6.7616  -6.5076  -6.3686  -6.2469  -6.1624
    -6.0638  -6.0158  -5.8714  -5.8196  -5.8080  -5.5827  -5.4154  -5.2228
    -5.0640  -4.1518  -4.1281  -4.1156  -4.0977  -4.0945  -4.0759  -4.0527
    -4.0283  -4.0155  -3.9979  -3.9692  -3.9273  -3.9099  -3.8680  -3.8468
     1.9904   3.6540   3.8229   3.9253   5.0402   5.1610   5.4498   5.5294
     5.9310   5.9875   6.0836   6.1552   6.2528   6.3582   6.8975   7.1732
     7.2416   7.4348   7.5780   7.6573   7.7154   7.8885   7.9682   8.1382
     8.4555   8.6539   8.7474   8.8102   8.9750   9.0714   9.2295   9.4158
     9.6094   9.6435   9.7432   9.8523  10.0763  10.3075  10.5753  10.7743
    11.6419  11.6953  11.9411  12.0517  12.0834  12.1124  12.4598  12.4721
    12.8276  12.9005  12.9704  13.0463  13.1261  13.1629  13.2741  13.3284
    13.9833  15.5526  15.6903  15.9680  16.3677  16.6404  16.8600  16.9228
    17.2212  17.5079  17.6918  17.7942

          k = 0.1667-0.5047-0.3608 ( 20066 PWs)   bands (ev):

   -75.5364 -75.2867 -34.9487 -34.8669 -34.8364 -34.7280 -34.6897 -34.6112
    -7.8057  -7.1327  -6.8574  -6.7694  -6.4242  -6.3807  -6.3403  -6.1757
    -6.1053  -6.0814  -5.8575  -5.8219  -5.7965  -5.5584  -5.4040  -5.2260
    -5.0604  -4.1349  -4.1272  -4.1239  -4.1095  -4.0874  -4.0721  -4.0422
    -4.0306  -4.0189  -4.0005  -3.9561  -3.9148  -3.9058  -3.8865  -3.8667
     1.9939   3.6351   3.8761   4.0125   5.1495   5.3084   5.4913   5.5385
     5.9534   6.0599   6.1543   6.1863   6.2531   6.3299   6.8776   6.9448
     7.0639   7.0924   7.3807   7.5625   7.7401   7.9723   8.0537   8.0878
     8.1874   8.3054   8.8111   8.9439   9.1063   9.3212   9.3888   9.4806
     9.6007   9.6489   9.7143   9.8984  10.0779  10.2805  10.5348  10.7183
    11.8277  11.9247  11.9557  11.9754  12.0454  12.1250  12.5523  12.6062
    12.7212  12.8010  13.0207  13.0568  13.1798  13.1992  13.3333  13.3648
    13.8376  15.4795  15.7432  15.8478  16.3477  16.7500  16.9056  16.9374
    17.2085  17.4667  17.5974  17.7422

          k = 0.1667-0.5047-0.1206 ( 20072 PWs)   bands (ev):

   -75.5364 -75.2867 -34.9487 -34.8669 -34.8364 -34.7280 -34.6897 -34.6112
    -7.8078  -7.1523  -6.9190  -6.7464  -6.5055  -6.3758  -6.2576  -6.1558
    -6.0631  -5.9702  -5.8935  -5.8446  -5.8068  -5.5737  -5.4134  -5.2250
    -5.0655  -4.1520  -4.1285  -4.1156  -4.0972  -4.0928  -4.0769  -4.0516
    -4.0296  -4.0182  -3.9871  -3.9625  -3.9312  -3.9110  -3.8693  -3.8573
     1.9916   3.6411   3.8300   3.9426   5.0386   5.1543   5.5157   5.6075
     5.8909   6.0027   6.0547   6.1182   6.2148   6.3313   6.8601   7.0880
     7.1656   7.3528   7.6060   7.7261   7.8438   7.9929   8.0837   8.1035
     8.3458   8.4625   8.8077   8.8365   9.1053   9.2394   9.3284   9.3779
     9.4234   9.4815   9.7172   9.8700  10.0660  10.2972  10.6948  10.8927
    11.6343  11.6537  11.9255  12.0418  12.0672  12.1074  12.5301  12.5450
    12.6813  12.7804  13.0268  13.0577  13.1469  13.1751  13.2771  13.3014
    13.9654  15.5071  15.6664  16.0494  16.4398  16.5092  16.8911  17.1221
    17.2633  17.4994  17.6234  17.7894

          k =-0.5000 0.1682 0.1217 ( 20080 PWs)   bands (ev):

   -75.5364 -75.2867 -34.9487 -34.8669 -34.8364 -34.7280 -34.6897 -34.6112
    -7.7849  -7.1918  -6.9201  -6.7559  -6.5207  -6.4030  -6.2298  -6.1612
    -6.0845  -5.9951  -5.8772  -5.8413  -5.7413  -5.4860  -5.4379  -5.2431
    -5.0875  -4.1386  -4.1276  -4.1072  -4.1015  -4.0939  -4.0811  -4.0563
    -4.0369  -4.0113  -4.0032  -3.9831  -3.9380  -3.8928  -3.8719  -3.8456
     1.9966   3.6186   3.8076   3.9370   5.0759   5.1198   5.3856   5.5467
     5.7878   5.9371   6.0703   6.1552   6.1731   6.3595   6.8127   7.0633
     7.2030   7.4426   7.5904   7.7131   7.8744   8.0404   8.1443   8.2426
     8.5260   8.6447   8.8314   9.0826   9.2140   9.2687   9.3187   9.4554
     9.5071   9.6062   9.6663   9.8057  10.0114  10.0862  10.4836  10.6648
    11.6362  11.6688  11.9698  12.0496  12.0999  12.1057  12.3956  12.5746
    12.6141  12.7769  12.8552  12.9502  13.1361  13.1728  13.3109  13.3812
    13.8607  15.5643  15.7713  15.9902  16.5395  16.7869  16.9808  17.1491
    17.2812  17.3807  17.5463  17.6785

          k =-0.5000 0.1682-0.3586 ( 20076 PWs)   bands (ev):

   -75.5364 -75.2867 -34.9487 -34.8669 -34.8364 -34.7280 -34.6897 -34.6112
    -7.7820  -7.1781  -6.8913  -6.7369  -6.4765  -6.3786  -6.3027  -6.2062
    -6.1044  -6.0579  -5.8916  -5.8054  -5.7459  -5.4854  -5.4109  -5.2399
    -5.0886  -4.1296  -4.1208  -4.1072  -4.1023  -4.0953  -4.0868  -4.0533
    -4.0382  -4.0182  -4.0097  -3.9711  -3.9242  -3.8904  -3.8757  -3.8647
     2.0060   3.6385   3.8336   3.9736   5.2156   5.2435   5.4036   5.5539
     5.8257   6.0572   6.1109   6.1631   6.2788   6.3198   6.6062   6.9044
     7.0965   7.3563   7.4914   7.5884   7.8734   7.9324   8.0230   8.1336
     8.2950   8.3492   8.8955   9.1548   9.3705   9.3871   9.4227   9.5385
     9.6203   9.7357   9.8492   9.9139   9.9546  10.1106  10.3151  10.4551
    11.9280  11.9546  11.9728  11.9847  12.0302  12.1045  12.2329  12.5855
    12.6152  12.7854  12.9407  13.0207  13.2482  13.2605  13.3125  13.3284
    13.8359  15.4260  15.8644  15.9605  16.3437  16.5884  17.0430  17.1105
    17.2115  17.3764  17.6176  17.7275

          k =-0.5000-0.5047 0.1217 ( 20108 PWs)   bands (ev):

   -75.5365 -75.2867 -34.9487 -34.8669 -34.8364 -34.7280 -34.6897 -34.6112
    -7.7934  -7.0827  -6.9006  -6.7932  -6.5484  -6.3219  -6.2187  -6.1682
    -6.0758  -5.8859  -5.8355  -5.8105  -5.7896  -5.5838  -5.4507  -5.2730
    -5.1066  -4.1605  -4.1271  -4.1232  -4.1030  -4.0948  -4.0847  -4.0666
    -4.0599  -4.0425  -4.0242  -4.0038  -3.9548  -3.9464  -3.8780  -3.8592
     1.8709   3.3508   3.7357   4.0291   4.6457   4.7806   5.6339   5.6350
     5.8219   6.0022   6.1566   6.4451   6.5043   6.6268   7.0123   7.3892
     7.4766   7.5495   7.7773   7.9700   8.0753   8.1036   8.2065   8.2860
     8.3462   8.5939   8.6916   8.7432   8.7716   9.1469   9.1799   9.2181
     9.5582   9.5937   9.6849   9.8237  10.0422  10.0464  10.8516  11.2312
    11.3735  11.3869  12.1016  12.1195  12.1289  12.1569  12.3298  12.3455
    12.6910  12.7005  13.0343  13.0886  13.1562  13.1918  13.5565  13.5940
    13.8257  14.7184  14.9122  15.9830  16.1850  16.4071  16.7074  16.7548
    17.0893  17.3111  17.4188  17.7667

          k =-0.5000-0.5047-0.3586 ( 20112 PWs)   bands (ev):

   -75.5365 -75.2867 -34.9487 -34.8669 -34.8364 -34.7280 -34.6897 -34.6112
    -7.7919  -7.0679  -6.8730  -6.7889  -6.4586  -6.3970  -6.2374  -6.1686
    -6.1066  -5.9058  -5.8410  -5.8257  -5.8211  -5.5787  -5.4274  -5.2710
    -5.1040  -4.1441  -4.1258  -4.1183  -4.1142  -4.0912  -4.0833  -4.0733
    -4.0475  -4.0372  -4.0044  -3.9780  -3.9609  -3.9464  -3.9084  -3.8918
     1.8946   3.6458   3.6738   3.6982   4.8028   4.9651   5.6037   5.6361
     5.9144   6.0458   6.1565   6.4730   6.5876   6.8149   6.9702   7.0961
     7.2999   7.3558   7.7252   7.8650   7.9180   8.0153   8.3346   8.4023
     8.4858   8.6079   8.6951   8.7621   8.7891   8.9285   8.9884   9.0786
     9.5388   9.6968   9.7496   9.8700   9.9554  10.5063  10.5368  10.5451
    11.9004  11.9134  11.9293  11.9359  12.1291  12.1837  12.4602  12.4767
    12.6505  12.6737  12.9904  13.0830  13.2851  13.3793  13.4456  13.4565
    13.9035  15.4173  15.5456  15.6759  15.6926  16.6377  16.7182  16.9466
    17.2048  17.2758  17.3878  17.4846

          k =-0.1667 0.1682-0.1195 ( 20076 PWs)   bands (ev):

   -75.5364 -75.2867 -34.9487 -34.8669 -34.8363 -34.7280 -34.6897 -34.6112
    -7.8162  -7.3398  -6.9387  -6.6717  -6.5666  -6.3387  -6.2095  -6.1475
    -6.0922  -6.0103  -5.9094  -5.8353  -5.7797  -5.5128  -5.4198  -5.2121
    -5.0510  -4.1291  -4.1224  -4.1009  -4.0838  -4.0822  -4.0686  -4.0559
    -4.0391  -4.0119  -3.9807  -3.9604  -3.9489  -3.8496  -3.8257  -3.7831
     2.0567   3.5873   4.0279   4.4108   4.8425   5.0796   5.2117   5.4593
     5.5484   5.6453   5.8622   6.0307   6.2459   6.3836   6.7724   6.9621
     7.1284   7.2580   7.3932   7.5096   7.8897   7.9548   8.2383   8.5892
     8.6831   8.8435   8.9032   9.0002   9.1702   9.2594   9.4165   9.4890
     9.5316   9.6363   9.8213   9.9682  10.1942  10.2899  10.4875  10.8254
    11.3277  11.5536  11.6526  11.6826  12.0701  12.1219  12.2458  12.3389
    12.5290  12.6081  12.8153  12.9181  13.0955  13.1651  13.2637  13.4079
    13.6186  15.6863  16.0603  16.8320  16.8452  17.0240  17.1418  17.2772
    17.5114  17.6430  17.8194  17.9468

          k =-0.1667 0.1682 0.3608 ( 20081 PWs)   bands (ev):

   -75.5364 -75.2867 -34.9487 -34.8669 -34.8364 -34.7280 -34.6897 -34.6112
    -7.8009  -7.3036  -6.9950  -6.6730  -6.4797  -6.3310  -6.2793  -6.1763
    -6.1213  -6.0044  -5.9051  -5.8421  -5.8056  -5.4894  -5.4011  -5.2084
    -5.0504  -4.1264  -4.1029  -4.0986  -4.0859  -4.0808  -4.0676  -4.0489
    -4.0384  -3.9824  -3.9645  -3.9570  -3.9383  -3.8703  -3.8623  -3.8230
     2.0853   3.6128   3.9611   4.2372   5.1204   5.2257   5.4458   5.5060
     5.6682   5.6988   5.8990   5.9561   6.1574   6.2484   6.7362   6.9515
     7.1478   7.2685   7.3335   7.4238   7.6180   7.7759   8.3086   8.4657
     8.5748   8.7335   8.7874   8.9559   9.0667   9.3640   9.4171   9.4619
     9.6674   9.7397   9.8800  10.0052  10.0829  10.2739  10.4876  10.6845
    11.5506  11.6561  11.9285  11.9392  12.0127  12.0257  12.2930  12.3664
    12.5280  12.6368  12.6919  12.9493  13.0426  13.0866  13.2551  13.2793
    13.9852  16.0348  16.2850  16.5116  16.7782  16.9327  17.1718  17.3105
    17.4027  17.5617  17.7160  17.8545

          k =-0.1667 0.1682 0.1206 ( 20064 PWs)   bands (ev):

   -75.5364 -75.2867 -34.9487 -34.8669 -34.8364 -34.7280 -34.6897 -34.6112
    -7.8082  -7.3636  -6.9196  -6.6821  -6.5551  -6.3463  -6.2091  -6.1585
    -6.0970  -5.9450  -5.9174  -5.8642  -5.7967  -5.5047  -5.4146  -5.2139
    -5.0548  -4.1301  -4.1232  -4.0937  -4.0910  -4.0819  -4.0715  -4.0524
    -4.0253  -4.0126  -3.9748  -3.9630  -3.9504  -3.8523  -3.8245  -3.7982
     2.0589   3.5719   4.0108   4.4229   4.8410   5.1776   5.2743   5.4242
     5.5782   5.7130   5.7937   5.9807   6.1873   6.3779   6.7910   6.8964
     7.0973   7.2390   7.4025   7.4199   7.9411   8.0997   8.1964   8.4588
     8.7260   8.7648   8.8926   9.0823   9.1410   9.2535   9.4187   9.4883
     9.5470   9.7743   9.8395  10.0700  10.1505  10.3225  10.4693  10.8055
    11.2326  11.5841  11.6344  11.6844  12.0688  12.1187  12.2741  12.3839
    12.5499  12.5801  12.7709  12.9118  13.0472  13.1330  13.2059  13.4318
    13.7310  15.7192  16.0806  16.7273  16.8328  16.9790  17.2152  17.2961
    17.4421  17.6876  17.8558  17.9406

          k = 0.5000 0.1682-0.1217 ( 20080 PWs)   bands (ev):

   -75.5364 -75.2867 -34.9487 -34.8669 -34.8364 -34.7280 -34.6897 -34.6112
    -7.7868  -7.1839  -6.9253  -6.7423  -6.5426  -6.4114  -6.2075  -6.1619
    -6.1019  -5.9986  -5.8805  -5.8078  -5.7481  -5.5010  -5.4283  -5.2435
    -5.0888  -4.1386  -4.1302  -4.1078  -4.0987  -4.0900  -4.0777  -4.0580
    -4.0372  -4.0190  -3.9992  -3.9900  -3.9361  -3.8934  -3.8789  -3.8352
     1.9967   3.6102   3.8052   3.9507   5.0642   5.1354   5.4618   5.5453
     5.6952   5.9639   6.0422   6.0957   6.1814   6.3727   6.8180   7.0248
     7.2939   7.4507   7.5977   7.7543   7.8757   8.0836   8.1536   8.2021
     8.4607   8.6551   8.8363   9.0122   9.2214   9.2590   9.3048   9.4718
     9.5446   9.5855   9.7071   9.7715  10.0054  10.1076  10.4771  10.6623
    11.6357  11.6682  11.9779  12.0391  12.0788  12.1288  12.4279  12.5542
    12.6056  12.7733  12.8906  12.9368  13.1368  13.1699  13.3137  13.3647
    13.8994  15.5629  15.7727  16.0365  16.4360  16.7288  16.8760  17.1395
    17.2571  17.4937  17.6405  17.7504

     the Fermi energy is    12.7306 ev

!    total energy              =   -1472.51990626 Ry
     Harris-Foulkes estimate   =   -1472.51990626 Ry
     estimated scf accuracy    <          3.8E-11 Ry

     The total energy is the sum of the following terms:

     one-electron contribution =    -295.99251769 Ry
     hartree contribution      =     284.96902182 Ry
     xc contribution           =    -357.03950704 Ry
     ewald contribution        =   -1104.41514318 Ry
     smearing contrib. (-TS)   =      -0.04176016 Ry

     convergence has been achieved in  23 iterations

     Forces acting on atoms (Ry/au):

     atom    1 type  1   force =     0.02452615    0.31743159    0.86159092
     atom    2 type  1   force =     0.00094390   -0.00623199    0.01342828
     atom    3 type  1   force =     0.00511552    0.00846899   -0.00715034
     atom    4 type  1   force =     0.00030322   -0.00113566    0.00729196
     atom    5 type  2   force =     0.00058247   -0.00087752   -0.00361820
     atom    6 type  2   force =     0.00179060   -0.00325395    0.00828572
     atom    7 type  3   force =    -0.01744103    0.04704611    0.04521599
     atom    8 type  3   force =    -0.00721533   -0.00055655   -0.00113283
     atom    9 type  4   force =     0.00046580   -0.02051706   -0.03441125
     atom   10 type  4   force =     0.00579841   -0.00195813    0.02752695
     atom   11 type  4   force =     0.01236358    0.00186024    0.04027507
     atom   12 type  4   force =    -0.00236029    0.00193541   -0.03139925
     atom   13 type  4   force =    -0.01596338   -0.02939676   -0.00095574
     atom   14 type  4   force =     0.02243114    0.03052465   -0.00718055
     atom   15 type  4   force =     0.01700625   -0.06157388   -0.02447399
     atom   16 type  4   force =    -0.02892741    0.03685230   -0.00303630
     atom   17 type  4   force =    -0.01942506    0.02016695    0.00667330
     atom   18 type  4   force =     0.01832191   -0.02617359   -0.00338033
     atom   19 type  4   force =     0.01612801    0.04131024   -0.01540835
     atom   20 type  4   force =    -0.00649972   -0.03890443   -0.01956650
     atom   21 type  5   force =    -0.02794474   -0.31501694   -0.85857456

     Total force =     1.306397     Total SCF correction =     0.000014


     entering subroutine stress ...

          total   stress  (Ry/bohr**3)                   (kbar)     P=  100.54
   0.00024107  -0.00003101   0.00000800         35.46     -4.56      1.18
  -0.00003101   0.00049077   0.00045237         -4.56     72.20     66.55
   0.00000800   0.00045237   0.00131860          1.18     66.55    193.97


     number of scf cycles    =   2
     number of bfgs steps    =   1

     energy   old            =   -1468.9057498144 Ry
     energy   new            =   -1472.5199062555 Ry

     CASE: energy  _new < energy  _old

     new trust radius        =       0.0709782052 bohr
     new conv_thr            =            1.0E-10 Ry


ATOMIC_POSITIONS (crystal)
Pb1      0.006660151   0.529659067   0.285739886
Pb1      0.994292753   0.487568037   0.750299212
Pb1      0.494715772   0.012669607   0.248766365
Pb1      0.505826899   0.988093878   0.751241787
Co1      0.000071552  -0.000090775  -0.000240531
Co1      0.500169074   0.499662723   0.500593799
Os1     -0.001754314   0.004855087   0.503264404
Os1      0.499230214   0.499934138  -0.000000250
O1       0.933958916   0.988521827   0.255660275
O1       0.066662438   0.009193652   0.743855214
O1       0.567280521   0.490791469   0.244767391
O1       0.433685322   0.509595626   0.755856802
O1       0.239712760   0.279261005   0.035287117
O1       0.760971865   0.720854484   0.964063733
O1       0.260495709   0.776021306   0.462864174
O1       0.738336118   0.221497278   0.535178584
O1       0.280423210   0.766623535   0.036955710
O1       0.719500165   0.232779458   0.963241634
O1       0.219337640   0.268697091   0.462436136
O1       0.781674490   0.731497517   0.535088282
XMU       0.000748745   0.451313990   0.134080275



     Writing output data file PbCoOsO6.nmu1.rel.002469169.save
     NEW-OLD atomic charge density approx. for the potential

     Check: negative/imaginary core charge=   -0.000005    0.000000

     total cpu time spent up to now is      899.2 secs

     Self-consistent Calculation

     iteration #  1     ecut=    80.00 Ry     beta=0.70
     Davidson diagonalization with overlap
     c_bands:  1 eigenvalues not converged
     c_bands:  1 eigenvalues not converged
     c_bands:  1 eigenvalues not converged
     ethr =  1.00E-06,  avg # of iterations = 14.0

     total cpu time spent up to now is      934.0 secs

     total energy              =   -1472.59593534 Ry
     Harris-Foulkes estimate   =   -1472.62520097 Ry
     estimated scf accuracy    <       0.03532042 Ry

     iteration #  2     ecut=    80.00 Ry     beta=0.70
     Davidson diagonalization with overlap
     ethr =  1.97E-05,  avg # of iterations =  5.1

     total cpu time spent up to now is      952.5 secs

     total energy              =   -1472.43287890 Ry
     Harris-Foulkes estimate   =   -1473.00792860 Ry
     estimated scf accuracy    <       7.11826781 Ry

     iteration #  3     ecut=    80.00 Ry     beta=0.70
     Davidson diagonalization with overlap
     ethr =  1.97E-05,  avg # of iterations =  5.1

     total cpu time spent up to now is      970.4 secs

     total energy              =   -1472.60005925 Ry
     Harris-Foulkes estimate   =   -1472.64202066 Ry
     estimated scf accuracy    <       0.73860306 Ry

     iteration #  4     ecut=    80.00 Ry     beta=0.70
     Davidson diagonalization with overlap
     ethr =  1.97E-05,  avg # of iterations =  2.1

     total cpu time spent up to now is      981.7 secs

     total energy              =   -1472.61900198 Ry
     Harris-Foulkes estimate   =   -1472.62596374 Ry
     estimated scf accuracy    <       0.08594436 Ry

     iteration #  5     ecut=    80.00 Ry     beta=0.70
     Davidson diagonalization with overlap
     ethr =  1.97E-05,  avg # of iterations =  2.4

     total cpu time spent up to now is      993.1 secs

     total energy              =   -1472.61742248 Ry
     Harris-Foulkes estimate   =   -1472.62781371 Ry
     estimated scf accuracy    <       0.14146141 Ry

     iteration #  6     ecut=    80.00 Ry     beta=0.70
     Davidson diagonalization with overlap
     ethr =  1.97E-05,  avg # of iterations =  1.3

     total cpu time spent up to now is     1003.7 secs

     total energy              =   -1472.62277619 Ry
     Harris-Foulkes estimate   =   -1472.62367658 Ry
     estimated scf accuracy    <       0.00695590 Ry

     iteration #  7     ecut=    80.00 Ry     beta=0.70
     Davidson diagonalization with overlap
     ethr =  3.89E-06,  avg # of iterations =  2.5

     total cpu time spent up to now is     1015.2 secs

     total energy              =   -1472.62315495 Ry
     Harris-Foulkes estimate   =   -1472.62332359 Ry
     estimated scf accuracy    <       0.00093559 Ry

     iteration #  8     ecut=    80.00 Ry     beta=0.70
     Davidson diagonalization with overlap
     ethr =  5.23E-07,  avg # of iterations =  2.7

     total cpu time spent up to now is     1026.9 secs

     total energy              =   -1472.62323304 Ry
     Harris-Foulkes estimate   =   -1472.62328028 Ry
     estimated scf accuracy    <       0.00023249 Ry

     iteration #  9     ecut=    80.00 Ry     beta=0.70
     Davidson diagonalization with overlap
     ethr =  1.30E-07,  avg # of iterations =  1.6

     total cpu time spent up to now is     1037.7 secs

     total energy              =   -1472.62325346 Ry
     Harris-Foulkes estimate   =   -1472.62326025 Ry
     estimated scf accuracy    <       0.00002362 Ry

     iteration # 10     ecut=    80.00 Ry     beta=0.70
     Davidson diagonalization with overlap
     ethr =  1.32E-08,  avg # of iterations =  2.0

     total cpu time spent up to now is     1050.0 secs

     total energy              =   -1472.62325648 Ry
     Harris-Foulkes estimate   =   -1472.62325963 Ry
     estimated scf accuracy    <       0.00001962 Ry

     iteration # 11     ecut=    80.00 Ry     beta=0.70
     Davidson diagonalization with overlap
     ethr =  1.10E-08,  avg # of iterations =  1.1

     total cpu time spent up to now is     1060.4 secs

     total energy              =   -1472.62325778 Ry
     Harris-Foulkes estimate   =   -1472.62325832 Ry
     estimated scf accuracy    <       0.00000224 Ry

     iteration # 12     ecut=    80.00 Ry     beta=0.70
     Davidson diagonalization with overlap
     ethr =  1.25E-09,  avg # of iterations =  2.0

     total cpu time spent up to now is     1072.3 secs

     total energy              =   -1472.62325803 Ry
     Harris-Foulkes estimate   =   -1472.62325819 Ry
     estimated scf accuracy    <       0.00000047 Ry

     iteration # 13     ecut=    80.00 Ry     beta=0.70
     Davidson diagonalization with overlap
     ethr =  2.63E-10,  avg # of iterations =  2.0

     total cpu time spent up to now is     1084.1 secs

     total energy              =   -1472.62325799 Ry
     Harris-Foulkes estimate   =   -1472.62325813 Ry
     estimated scf accuracy    <       0.00000051 Ry

     iteration # 14     ecut=    80.00 Ry     beta=0.70
     Davidson diagonalization with overlap
     ethr =  2.63E-10,  avg # of iterations =  2.4

     total cpu time spent up to now is     1095.8 secs

     total energy              =   -1472.62325763 Ry
     Harris-Foulkes estimate   =   -1472.62325860 Ry
     estimated scf accuracy    <       0.00002016 Ry

     iteration # 15     ecut=    80.00 Ry     beta=0.70
     Davidson diagonalization with overlap
     ethr =  2.63E-10,  avg # of iterations =  2.1

     total cpu time spent up to now is     1107.3 secs

     total energy              =   -1472.62325811 Ry
     Harris-Foulkes estimate   =   -1472.62325812 Ry
     estimated scf accuracy    <       0.00000003 Ry

     iteration # 16     ecut=    80.00 Ry     beta=0.70
     Davidson diagonalization with overlap
     ethr =  1.45E-11,  avg # of iterations =  2.0

     total cpu time spent up to now is     1119.5 secs

     total energy              =   -1472.62325811 Ry
     Harris-Foulkes estimate   =   -1472.62325811 Ry
     estimated scf accuracy    <          9.0E-09 Ry

     iteration # 17     ecut=    80.00 Ry     beta=0.70
     Davidson diagonalization with overlap
     ethr =  5.01E-12,  avg # of iterations =  2.0

     total cpu time spent up to now is     1131.6 secs

     total energy              =   -1472.62325811 Ry
     Harris-Foulkes estimate   =   -1472.62325812 Ry
     estimated scf accuracy    <       0.00000005 Ry

     iteration # 18     ecut=    80.00 Ry     beta=0.70
     Davidson diagonalization with overlap
     ethr =  5.01E-12,  avg # of iterations =  1.0

     total cpu time spent up to now is     1141.9 secs

     total energy              =   -1472.62325811 Ry
     Harris-Foulkes estimate   =   -1472.62325811 Ry
     estimated scf accuracy    <          9.2E-09 Ry

     iteration # 19     ecut=    80.00 Ry     beta=0.70
     Davidson diagonalization with overlap
     ethr =  5.01E-12,  avg # of iterations =  1.0

     total cpu time spent up to now is     1152.3 secs

     total energy              =   -1472.62325811 Ry
     Harris-Foulkes estimate   =   -1472.62325811 Ry
     estimated scf accuracy    <       0.00000001 Ry

     iteration # 20     ecut=    80.00 Ry     beta=0.70
     Davidson diagonalization with overlap
     ethr =  5.01E-12,  avg # of iterations =  1.0

     total cpu time spent up to now is     1162.6 secs

     total energy              =   -1472.62325811 Ry
     Harris-Foulkes estimate   =   -1472.62325811 Ry
     estimated scf accuracy    <          3.5E-10 Ry

     iteration # 21     ecut=    80.00 Ry     beta=0.70
     Davidson diagonalization with overlap
     ethr =  1.96E-13,  avg # of iterations =  2.0

     total cpu time spent up to now is     1174.0 secs

     End of self-consistent calculation

[...]
    16.1925  16.3248  16.4460  16.5823  16.6810  16.7899  16.8677  16.9408
    17.2678  17.3461  17.6316  17.9200

          k = 0.1667 0.1682-0.1206 ( 20064 PWs)   bands (ev):

   -75.2862 -75.1389 -34.7290 -34.6327 -34.5793 -34.5586 -34.4922 -34.4008
    -8.1452  -7.1459  -6.8271  -6.5915  -6.3857  -6.3189  -6.1952  -6.0487
    -5.9635  -5.8860  -5.8437  -5.6035  -4.2007  -4.1617  -4.1430  -4.1375
    -4.1255  -4.1154  -4.1021  -4.0974  -4.0935  -4.0810  -4.0509  -4.0408
    -4.0283  -4.0038  -3.9684  -3.9548  -3.9269  -3.8637  -3.7907  -3.7424
     3.1070   3.7235   3.9749   4.4516   4.6291   4.9559   5.1564   5.5058
     5.5901   5.7378   5.8585   5.9482   6.3814   6.4466   6.6687   6.8095
     6.9911   7.1577   7.1716   7.4131   7.7484   7.8356   7.9905   8.3433
     8.5292   8.6681   8.8942   9.0547   9.0897   9.1960   9.3324   9.3955
     9.5333   9.6963   9.8399  10.0133  10.1462  10.3461  10.5223  10.9448
    11.2333  11.4383  11.5141  11.5599  12.0150  12.0971  12.1633  12.3284
    12.5793  12.6504  12.8135  12.9891  13.0720  13.1413  13.2543  13.4072
    15.2899  15.8831  16.3515  16.6487  16.7567  17.0534  17.2663  17.2938
    17.4045  17.5813  17.6822  17.7473

          k = 0.1667-0.5047 0.1195 ( 20082 PWs)   bands (ev):

   -75.2862 -75.1389 -34.7290 -34.6327 -34.5793 -34.5587 -34.4922 -34.4009
    -8.0950  -6.9851  -6.7937  -6.7118  -6.4291  -6.3169  -6.1988  -6.0988
    -5.9048  -5.8458  -5.8180  -5.5906  -4.1860  -4.1616  -4.1531  -4.1454
    -4.1346  -4.1276  -4.1134  -4.1122  -4.1017  -4.0877  -4.0757  -4.0559
    -4.0348  -4.0225  -3.9957  -3.9786  -3.9441  -3.9340  -3.8523  -3.7559
     3.2348   3.4633   3.6349   4.0569   4.7097   5.1263   5.3392   5.6412
     5.7168   5.9649   6.0225   6.1669   6.2705   6.3857   6.6674   7.0250
     7.1894   7.3258   7.5614   7.6351   7.7251   7.8687   8.0417   8.1682
     8.3791   8.6517   8.8069   8.9367   8.9736   9.1120   9.2643   9.3356
     9.4094   9.5183   9.7566   9.9911  10.1252  10.3217  10.5024  10.7944
    11.4552  11.5128  11.8428  11.9412  12.0309  12.1345  12.3800  12.4700
    12.5026  12.7413  12.9147  13.1160  13.1806  13.2624  13.3278  13.4642
    15.2926  15.5201  15.9485  16.1580  16.3180  16.5308  16.7893  17.0436
    17.0904  17.2137  17.5169  17.5991

          k = 0.1667-0.5047-0.3608 ( 20066 PWs)   bands (ev):

   -75.2862 -75.1389 -34.7290 -34.6327 -34.5793 -34.5587 -34.4922 -34.4009
    -8.0905  -6.8885  -6.8686  -6.5848  -6.5310  -6.2983  -6.2503  -6.1694
    -5.9043  -5.8685  -5.7855  -5.5685  -4.1807  -4.1653  -4.1533  -4.1476
    -4.1446  -4.1336  -4.1289  -4.1217  -4.1084  -4.0882  -4.0666  -4.0584
    -4.0446  -4.0135  -3.9834  -3.9818  -3.9370  -3.8740  -3.8578  -3.7840
     3.2171   3.6508   3.7069   3.8452   4.7595   5.4329   5.4784   5.6059
     5.7571   5.9981   6.0395   6.1559   6.3270   6.3855   6.6400   6.8718
     7.0193   7.1516   7.2845   7.4556   7.6400   7.7653   8.0198   8.1204
     8.3015   8.6122   8.9602   9.0423   9.1378   9.1817   9.3269   9.4702
     9.5394   9.6330   9.7399   9.9002   9.9980  10.2293  10.3936  10.7449
    11.7257  11.7853  11.8287  11.8611  11.8975  12.0329  12.3370  12.4620
    12.5135  12.7358  12.8000  12.8090  13.3179  13.3606  13.6097  13.7356
    15.4452  15.5055  15.7470  15.8387  16.4179  16.5223  16.7576  16.8985
    17.1073  17.3273  17.4177  17.6071

          k = 0.1667-0.5047-0.1206 ( 20072 PWs)   bands (ev):

   -75.2862 -75.1389 -34.7290 -34.6327 -34.5793 -34.5587 -34.4922 -34.4009
    -8.0950  -6.9875  -6.7908  -6.7131  -6.4359  -6.3147  -6.1974  -6.0742
    -5.9207  -5.8582  -5.8136  -5.5866  -4.1762  -4.1669  -4.1476  -4.1446
    -4.1429  -4.1273  -4.1171  -4.1122  -4.1042  -4.0915  -4.0709  -4.0545
    -4.0398  -4.0198  -4.0001  -3.9806  -3.9521  -3.9163  -3.8503  -3.7592
     3.2334   3.4865   3.6421   4.0243   4.7032   5.1276   5.3253   5.6556
     5.7146   5.9794   6.0236   6.1733   6.3023   6.3887   6.6519   7.0324
     7.1691   7.3441   7.5417   7.6442   7.7515   7.8434   8.0583   8.1113
     8.2995   8.5983   8.7834   8.9439   9.0534   9.1486   9.2645   9.3791
     9.4106   9.4759   9.8163   9.9172  10.1289  10.4288  10.5669  10.7496
    11.4401  11.5011  11.8304  11.9585  12.0028  12.1251  12.3143  12.4554
    12.5687  12.8142  12.9430  13.0065  13.1626  13.2743  13.3070  13.5058
    15.3050  15.4573  15.9909  16.1832  16.4130  16.4769  16.6938  16.9862
    17.1051  17.2634  17.5122  17.6115

          k =-0.5000 0.1682 0.1217 ( 20080 PWs)   bands (ev):

   -75.2862 -75.1389 -34.7290 -34.6327 -34.5793 -34.5586 -34.4923 -34.4008
    -8.0935  -6.9810  -6.8303  -6.6976  -6.4427  -6.2813  -6.1923  -6.0622
    -5.9208  -5.8555  -5.8281  -5.6279  -4.1826  -4.1682  -4.1605  -4.1363
    -4.1340  -4.1298  -4.1192  -4.1112  -4.1071  -4.0822  -4.0678  -4.0542
    -4.0334  -4.0178  -3.9889  -3.9792  -3.9551  -3.9219  -3.8119  -3.7876
     3.4102   3.5369   3.6731   4.0102   4.5855   5.0889   5.3084   5.6048
     5.7778   5.9577   6.0698   6.1778   6.2602   6.4552   6.5596   7.0024
     7.0908   7.2264   7.3518   7.5476   7.7094   7.9153   8.0243   8.2220
     8.3970   8.7081   8.7990   8.9894   9.0999   9.2021   9.2583   9.3366
     9.4470   9.6161   9.7237   9.9458  10.0379  10.2459  10.5457  10.6516
    11.4144  11.5298  11.9223  12.0499  12.0758  12.1380  12.3872  12.4769
    12.6643  12.7442  12.9256  13.0475  13.2134  13.2317  13.3470  13.3911
    15.3749  15.4524  15.8810  16.2818  16.4653  16.6339  16.8066  17.0222
    17.0871  17.2118  17.4949  17.5550

          k =-0.5000 0.1682-0.3586 ( 20076 PWs)   bands (ev):

   -75.2862 -75.1389 -34.7290 -34.6327 -34.5793 -34.5586 -34.4923 -34.4008
    -8.0893  -6.8872  -6.8689  -6.6239  -6.5440  -6.2465  -6.2190  -6.1659
    -5.8975  -5.8633  -5.8119  -5.6164  -4.1821  -4.1701  -4.1621  -4.1517
    -4.1396  -4.1331  -4.1284  -4.1150  -4.1088  -4.1043  -4.0603  -4.0469
    -4.0219  -4.0027  -3.9956  -3.9768  -3.9524  -3.8823  -3.8226  -3.7921
     3.3355   3.6382   3.9113   3.9487   4.4577   5.4004   5.4230   5.6318
     5.8280   5.9766   6.0619   6.2294   6.2566   6.3075   6.4306   6.7946
     6.9875   7.1036   7.2779   7.3908   7.6272   7.8966   8.0263   8.0691
     8.5471   8.5994   8.8361   9.1401   9.2468   9.2981   9.3731   9.4750
     9.5282   9.6456   9.6756   9.8016   9.9373  10.2272  10.3702  10.4653
    11.7678  11.8072  11.8914  11.9226  12.0242  12.0483  12.3060  12.4832
    12.5812  12.6299  12.8116  13.1026  13.2443  13.3154  13.6226  13.6601
    15.5524  15.6261  15.7559  15.9069  16.3027  16.4704  16.8108  16.9228
    17.1476  17.2108  17.3422  17.5183

          k =-0.5000-0.5047 0.1217 ( 20108 PWs)   bands (ev):

   -75.2862 -75.1389 -34.7290 -34.6327 -34.5793 -34.5587 -34.4923 -34.4009
    -8.0737  -6.8455  -6.8189  -6.7197  -6.5223  -6.2732  -6.1759  -5.9875
    -5.9257  -5.8475  -5.7681  -5.6346  -4.1907  -4.1835  -4.1678  -4.1645
    -4.1509  -4.1458  -4.1334  -4.1225  -4.1162  -4.1058  -4.0907  -4.0837
    -4.0648  -4.0361  -4.0262  -4.0170  -3.9731  -3.9329  -3.8142  -3.7913
     3.2292   3.2481   3.4931   4.0368   4.4757   4.7855   5.4315   5.5992
     5.7745   5.8054   5.9277   6.6231   6.7218   6.7499   6.8581   7.3304
     7.3976   7.5570   7.7254   7.7478   7.8712   7.9281   8.0728   8.2320
     8.3607   8.4135   8.5447   8.7824   8.8896   9.0238   9.1549   9.3657
     9.4425   9.5422   9.7548   9.8693  10.1954  10.4117  10.9387  11.0720
    11.2119  11.3612  12.0278  12.0695  12.1103  12.1963  12.2900  12.3976
    12.6783  12.7258  12.9546  13.0387  13.1692  13.3492  13.4270  13.5003
    14.3247  14.4053  15.9588  16.1105  16.2618  16.3603  16.6725  16.7974
    16.9583  17.0760  17.3784  17.4482

          k =-0.5000-0.5047-0.3586 ( 20112 PWs)   bands (ev):

   -75.2862 -75.1389 -34.7290 -34.6327 -34.5793 -34.5587 -34.4923 -34.4009
    -8.0705  -6.7936  -6.7808  -6.6819  -6.5970  -6.2549  -6.2069  -6.0615
    -5.9431  -5.8150  -5.7838  -5.6361  -4.1871  -4.1792  -4.1673  -4.1648
    -4.1512  -4.1456  -4.1348  -4.1234  -4.1194  -4.1165  -4.1087  -4.0697
    -4.0472  -4.0234  -4.0129  -3.9923  -3.9850  -3.9042  -3.8394  -3.8301
     3.2187   3.5725   3.6364   3.6529   4.3400   5.0068   5.5093   5.6898
     5.7492   5.8539   5.9166   6.6681   6.6931   6.8286   6.9653   7.0811
     7.2627   7.3786   7.4768   7.7938   7.9080   7.9498   8.1766   8.3868
     8.4264   8.5171   8.5492   8.7251   8.7353   8.8896   8.9935   9.1954
     9.5605   9.6503   9.7143   9.8958  10.2063  10.4645  10.5714  10.6628
    11.7465  11.7800  11.8149  11.8963  12.0740  12.0852  12.3207  12.4743
    12.5978  12.7091  12.9596  13.0233  13.2301  13.2811  13.5911  13.6870
    15.0488  15.2190  15.3218  15.3924  16.4302  16.5240  16.8587  17.1104
    17.1581  17.1921  17.2734  17.3898

          k =-0.1667 0.1682-0.1195 ( 20076 PWs)   bands (ev):

   -75.2862 -75.1389 -34.7290 -34.6327 -34.5793 -34.5586 -34.4922 -34.4008
    -8.1582  -7.1283  -6.7827  -6.6183  -6.3912  -6.3048  -6.2126  -6.0808
    -5.9409  -5.8917  -5.8514  -5.5943  -4.2028  -4.1524  -4.1451  -4.1341
    -4.1215  -4.1190  -4.1051  -4.0991  -4.0926  -4.0780  -4.0538  -4.0397
    -4.0255  -4.0039  -3.9876  -3.9432  -3.9334  -3.8653  -3.8017  -3.7241
     3.1420   3.7245   3.9196   4.2475   4.7120   4.9760   5.2309   5.5618
     5.6479   5.7041   5.8832   5.9706   6.3507   6.5313   6.7206   6.7614
     6.9397   7.0737   7.2964   7.4089   7.7325   7.7866   8.0686   8.2825
     8.4687   8.7438   8.8713   9.0207   9.0683   9.2152   9.3265   9.4040
     9.4776   9.5425   9.7119  10.1265  10.2072  10.2655  10.4796  10.9497
    11.2330  11.5052  11.5693  11.7625  12.0574  12.1121  12.2629  12.3222
    12.5198  12.6634  12.8320  12.9490  12.9878  13.1627  13.2551  13.3691
    15.2509  15.9193  16.2772  16.6301  16.8466  17.0689  17.2251  17.3025
    17.4187  17.5210  17.6319  17.7023

          k =-0.1667 0.1682 0.3608 ( 20081 PWs)   bands (ev):

   -75.2862 -75.1389 -34.7290 -34.6327 -34.5793 -34.5586 -34.4922 -34.4008
    -8.1478  -7.0902  -6.8284  -6.5340  -6.4389  -6.2939  -6.2475  -6.1329
    -5.9557  -5.8829  -5.8389  -5.5864  -4.1850  -4.1673  -4.1441  -4.1403
    -4.1339  -4.1259  -4.1167  -4.1019  -4.0946  -4.0798  -4.0462  -4.0307
    -4.0078  -3.9985  -3.9737  -3.9412  -3.8872  -3.8606  -3.8145  -3.7760
     3.2738   3.6144   3.9711   4.1855   4.6955   5.2521   5.3204   5.6433
     5.6965   5.7894   5.9121   5.9837   6.1633   6.3103   6.4866   6.9442
     7.0036   7.0657   7.2695   7.3401   7.5439   7.8368   8.0839   8.3448
     8.4540   8.6524   8.7096   8.8245   9.0838   9.1434   9.2843   9.4871
     9.6576   9.8034   9.8708   9.9589  10.0346  10.3029  10.4534  10.5551
    11.5040  11.7277  11.7679  11.8334  11.8770  11.9648  12.2191  12.3003
    12.4241  12.5494  12.6850  12.7414  13.0874  13.1785  13.5109  13.6289
    16.1797  16.3319  16.4395  16.5569  16.6767  16.8187  16.9344  16.9994
    17.1050  17.2088  17.6664  17.8715

          k =-0.1667 0.1682 0.1206 ( 20064 PWs)   bands (ev):

   -75.2862 -75.1389 -34.7290 -34.6327 -34.5793 -34.5586 -34.4922 -34.4008
    -8.1583  -7.1293  -6.7817  -6.6200  -6.3914  -6.3050  -6.2131  -6.0630
    -5.9465  -5.9014  -5.8525  -5.5917  -4.1985  -4.1584  -4.1483  -4.1384
    -4.1329  -4.1136  -4.1016  -4.0996  -4.0886  -4.0771  -4.0521  -4.0384
    -4.0204  -4.0057  -3.9813  -3.9607  -3.9273  -3.8609  -3.7986  -3.7276
     3.1377   3.7319   3.9104   4.3059   4.7048   4.9632   5.1856   5.5802
     5.6372   5.7773   5.8646   5.9439   6.2762   6.5302   6.7294   6.8278
     6.9581   7.0488   7.2390   7.3692   7.6546   7.8829   8.0023   8.2897
     8.5230   8.7715   8.9391   9.0070   9.1613   9.2025   9.2980   9.3772
     9.4405   9.6474   9.8354  10.0407  10.1548  10.2078  10.4485  10.9381
    11.2088  11.5101  11.5889  11.7657  12.0835  12.1045  12.2806  12.3423
    12.5401  12.6495  12.8031  12.8830  13.0155  13.0925  13.2895  13.4105
    15.2589  15.8666  16.4127  16.5974  16.8403  17.0921  17.2035  17.2396
    17.3456  17.4558  17.6121  17.6820

          k = 0.5000 0.1682-0.1217 ( 20080 PWs)   bands (ev):

   -75.2862 -75.1389 -34.7290 -34.6327 -34.5793 -34.5586 -34.4923 -34.4008
    -8.0935  -6.9830  -6.8268  -6.6968  -6.4473  -6.2831  -6.1931  -6.0601
    -5.9084  -5.8611  -5.8294  -5.6300  -4.1811  -4.1674  -4.1603  -4.1478
    -4.1350  -4.1291  -4.1161  -4.1128  -4.1026  -4.0930  -4.0711  -4.0498
    -4.0319  -4.0069  -3.9933  -3.9828  -3.9511  -3.9185  -3.8104  -3.7883
     3.4134   3.5416   3.6693   4.0125   4.5828   5.1029   5.3295   5.5653
     5.8143   5.9078   6.0378   6.1497   6.2849   6.4482   6.5577   6.9446
     7.0888   7.2709   7.3758   7.5872   7.7503   7.8946   8.0579   8.2130
     8.4789   8.6619   8.8714   8.9705   9.0617   9.1982   9.3028   9.3628
     9.4549   9.5682   9.5934   9.8904  10.1029  10.3311  10.4408  10.5947
    11.4568  11.5625  11.9243  12.0448  12.0882  12.1140  12.3686  12.5267
    12.6576  12.7291  12.9854  12.9954  13.1391  13.2892  13.3344  13.3929
    15.3991  15.5032  16.1486  16.2725  16.4463  16.5392  16.7715  16.8487
    17.0150  17.1766  17.3800  17.5679

     the Fermi energy is    12.6889 ev

!    total energy              =   -1473.03731233 Ry
     Harris-Foulkes estimate   =   -1473.03731233 Ry
     estimated scf accuracy    <          2.9E-13 Ry

     The total energy is the sum of the following terms:

     one-electron contribution =    -289.16937741 Ry
     hartree contribution      =     282.08769397 Ry
     xc contribution           =    -356.98282606 Ry
     ewald contribution        =   -1108.93478245 Ry
     smearing contrib. (-TS)   =      -0.03802037 Ry

     convergence has been achieved in  18 iterations

     Forces acting on atoms (Ry/au):

     atom    1 type  1   force =    -0.00000082    0.00006019   -0.00002809
     atom    2 type  1   force =     0.00000965   -0.00005506    0.00000831
     atom    3 type  1   force =     0.00005681    0.00001742   -0.00000268
     atom    4 type  1   force =    -0.00000276   -0.00004321   -0.00005373
     atom    5 type  2   force =    -0.00002432   -0.00000401    0.00003504
     atom    6 type  2   force =     0.00000804    0.00002406   -0.00000221
     atom    7 type  3   force =     0.00000043    0.00005608   -0.00004122
     atom    8 type  3   force =    -0.00002621    0.00000027    0.00004543
     atom    9 type  4   force =    -0.00002614    0.00004399   -0.00001301
     atom   10 type  4   force =     0.00003057   -0.00001165   -0.00004904
     atom   11 type  4   force =     0.00002675   -0.00000522    0.00003861
     atom   12 type  4   force =    -0.00003697    0.00003599    0.00004980
     atom   13 type  4   force =    -0.00003681   -0.00009003    0.00002875
     atom   14 type  4   force =    -0.00000680   -0.00000310   -0.00002752
     atom   15 type  4   force =    -0.00000600   -0.00000617    0.00001544
     atom   16 type  4   force =    -0.00002308   -0.00001670   -0.00000321
     atom   17 type  4   force =     0.00000585   -0.00000774   -0.00003282
     atom   18 type  4   force =     0.00000954    0.00001722   -0.00006534
     atom   19 type  4   force =    -0.00006585   -0.00002012    0.00008087
     atom   20 type  4   force =     0.00004426    0.00001269   -0.00001500
     atom   21 type  5   force =     0.00006387   -0.00000489    0.00003162

     Total force =     0.000276     Total SCF correction =     0.000002


     entering subroutine stress ...

          total   stress  (Ry/bohr**3)                   (kbar)     P=   47.60
   0.00021261   0.00004447  -0.00001491         31.28      6.54     -2.19
   0.00004447   0.00042800  -0.00003311          6.54     62.96     -4.87
  -0.00001491  -0.00003311   0.00033007         -2.19     -4.87     48.55


     bfgs converged in 140 scf cycles and 139 bfgs steps
     (criteria: energy <  1.0E-05, force <  1.0E-04)

     End of BFGS Geometry Optimization

     Final energy   =   -1473.0373123251 Ry
Begin final coordinates

ATOMIC_POSITIONS (crystal)
Pb1     -0.024848860   0.495368348   0.276934842
Pb1      0.994974863   0.486017789   0.742000257
Pb1      0.504993863   0.041112799   0.269771433
Pb1      0.488704783   1.038185859   0.745761161
Co1     -0.015147937  -0.046866997   0.004827545
Co1      0.491008956   0.525033319   0.508238749
Os1      0.000553417  -0.008520408   0.508042457
Os1      0.502138052   0.534058876   0.005309401
O1       0.964230848   1.007892547   0.259374257
O1       0.022865569   0.016062152   0.756516947
O1       0.529837002   0.500825352   0.252691082
O1       0.465928873   0.492590973   0.760773986
O1       0.281497057   0.229875887   0.019180281
O1       0.679011081   0.820513844   0.995251515
O1       0.292946754   0.804474528   0.495201118
O1       0.725401179   0.219903928   0.519514890
O1       0.193959036   0.689975206   0.021759421
O1       0.782523879   0.321020413   0.994268781
O1       0.215119761   0.285853487   0.494153666
O1       0.787746272   0.714173871   0.521699597
XMU       0.118555550   0.301448227   0.017728612
End final coordinates



     Writing output data file PbCoOsO6.nmu1.rel.002469169.save
 
     init_run     :     10.10s CPU     11.28s WALL (       1 calls)
     electrons    :  34090.91s CPU  37452.48s WALL (     140 calls)
     update_pot   :    907.30s CPU   1044.85s WALL (     139 calls)
     forces       :    942.07s CPU    964.57s WALL (     140 calls)
     stress       :   2444.44s CPU   2508.24s WALL (     140 calls)

     Called by init_run:
     wfcinit      :      3.08s CPU      3.55s WALL (       1 calls)
     potinit      :      2.39s CPU      2.45s WALL (       1 calls)

     Called by electrons:
     c_bands      :  26109.83s CPU  27961.00s WALL (    3023 calls)
     sum_band     :   5972.10s CPU   6692.98s WALL (    3023 calls)
     v_of_rho     :    226.53s CPU    267.99s WALL (    3115 calls)
     newd         :   1808.03s CPU   2142.39s WALL (    3115 calls)
     mix_rho      :     34.78s CPU     44.63s WALL (    3023 calls)

     Called by c_bands:
     init_us_2    :    265.19s CPU    288.54s WALL (   88578 calls)
     cegterg      :  24938.60s CPU  26729.90s WALL (   42322 calls)

     Called by sum_band:
     sum_band:bec :     12.46s CPU     15.70s WALL (   42322 calls)
     addusdens    :   2583.02s CPU   3062.08s WALL (    3023 calls)

     Called by *egterg:
     h_psi        :  13352.47s CPU  14500.21s WALL (  128149 calls)
     s_psi        :   1780.49s CPU   1811.98s WALL (  128149 calls)
     g_psi        :     66.19s CPU     67.56s WALL (   85813 calls)
     cdiaghg      :   3987.07s CPU   3993.44s WALL (  125517 calls)

     Called by h_psi:
     h_psi:pot    :  13126.63s CPU  14271.15s WALL (  128149 calls)
     h_psi:calbec :   1936.71s CPU   1934.51s WALL (  128149 calls)
     vloc_psi     :   9336.01s CPU  10447.19s WALL (  128149 calls)
     add_vuspsi   :   1852.76s CPU   1888.33s WALL (  128149 calls)

     General routines
     calbec       :   2953.61s CPU   2949.64s WALL (  180271 calls)
     fft          :    257.68s CPU    294.53s WALL (   53111 calls)
     ffts         :      4.10s CPU      5.28s WALL (    6138 calls)
     fftw         :   9671.53s CPU  10819.47s WALL (25310298 calls)
     interpolate  :     24.71s CPU     37.09s WALL (    6138 calls)
 
     Parallel routines
     fft_scatter  :   4147.57s CPU   3993.00s WALL (25369547 calls)
 
     PWSCF        :    10h41m CPU       11h57m WALL

 
   This run was terminated on:  19:37:39  17Mar2018            

=------------------------------------------------------------------------------=
   JOB DONE.
=------------------------------------------------------------------------------=
